
                                 *****************
                                 * O   R   C   A *
                                 *****************

                                            #,                                       
                                            ###                                      
                                            ####                                     
                                            #####                                    
                                            ######                                   
                                           ########,                                 
                                     ,,################,,,,,                         
                               ,,#################################,,                 
                          ,,##########################################,,             
                       ,#########################################, ''#####,          
                    ,#############################################,,   '####,        
                  ,##################################################,,,,####,       
                ,###########''''           ''''###############################       
              ,#####''   ,,,,##########,,,,          '''####'''          '####       
            ,##' ,,,,###########################,,,                        '##       
           ' ,,###''''                  '''############,,,                           
         ,,##''                                '''############,,,,        ,,,,,,###''
      ,#''                                            '''#######################'''  
     '                                                          ''''####''''         
             ,#######,   #######,   ,#######,      ##                                
            ,#'     '#,  ##    ##  ,#'     '#,    #''#        ######   ,####,        
            ##       ##  ##   ,#'  ##            #'  '#       #        #'  '#        
            ##       ##  #######   ##           ,######,      #####,   #    #        
            '#,     ,#'  ##    ##  '#,     ,#' ,#      #,         ##   #,  ,#        
             '#######'   ##     ##  '#######'  #'      '#     #####' # '####'        



                  #######################################################
                  #                        -***-                        #
                  #          Department of theory and spectroscopy      #
                  #    Directorship and core code : Frank Neese         #
                  #        Max Planck Institute fuer Kohlenforschung    #
                  #                Kaiser Wilhelm Platz 1               #
                  #                 D-45470 Muelheim/Ruhr               #
                  #                      Germany                        #
                  #                                                     #
                  #                  All rights reserved                #
                  #                        -***-                        #
                  #######################################################


                         Program Version 5.0.4 -  RELEASE  -


 With contributions from (in alphabetic order):
   Daniel Aravena         : Magnetic Suceptibility
   Michael Atanasov       : Ab Initio Ligand Field Theory (pilot matlab implementation)
   Alexander A. Auer      : GIAO ZORA, VPT2 properties, NMR spectrum
   Ute Becker             : Parallelization
   Giovanni Bistoni       : ED, misc. LED, open-shell LED, HFLD
   Martin Brehm           : Molecular dynamics
   Dmytro Bykov           : SCF Hessian
   Vijay G. Chilkuri      : MRCI spin determinant printing, contributions to CSF-ICE
   Dipayan Datta          : RHF DLPNO-CCSD density
   Achintya Kumar Dutta   : EOM-CC, STEOM-CC
   Dmitry Ganyushin       : Spin-Orbit,Spin-Spin,Magnetic field MRCI
   Miquel Garcia          : C-PCM and meta-GGA Hessian, CC/C-PCM, Gaussian charge scheme
   Yang Guo               : DLPNO-NEVPT2, F12-NEVPT2, CIM, IAO-localization
   Andreas Hansen         : Spin unrestricted coupled pair/coupled cluster methods
   Benjamin Helmich-Paris : MC-RPA, TRAH-SCF, COSX integrals
   Lee Huntington         : MR-EOM, pCC
   Robert Izsak           : Overlap fitted RIJCOSX, COSX-SCS-MP3, EOM
   Marcus Kettner         : VPT2
   Christian Kollmar      : KDIIS, OOCD, Brueckner-CCSD(T), CCSD density, CASPT2, CASPT2-K
   Simone Kossmann        : Meta GGA functionals, TD-DFT gradient, OOMP2, MP2 Hessian
   Martin Krupicka        : Initial AUTO-CI
   Lucas Lang             : DCDCAS
   Marvin Lechner         : AUTO-CI (C++ implementation), FIC-MRCC
   Dagmar Lenk            : GEPOL surface, SMD
   Dimitrios Liakos       : Extrapolation schemes; Compound Job, initial MDCI parallelization
   Dimitrios Manganas     : Further ROCIS development; embedding schemes
   Dimitrios Pantazis     : SARC Basis sets
   Anastasios Papadopoulos: AUTO-CI, single reference methods and gradients
   Taras Petrenko         : DFT Hessian,TD-DFT gradient, ASA, ECA, R-Raman, ABS, FL, XAS/XES, NRVS
   Peter Pinski           : DLPNO-MP2, DLPNO-MP2 Gradient
   Christoph Reimann      : Effective Core Potentials
   Marius Retegan         : Local ZFS, SOC
   Christoph Riplinger    : Optimizer, TS searches, QM/MM, DLPNO-CCSD(T), (RO)-DLPNO pert. Triples
   Tobias Risthaus        : Range-separated hybrids, TD-DFT gradient, RPA, STAB
   Michael Roemelt        : Original ROCIS implementation
   Masaaki Saitow         : Open-shell DLPNO-CCSD energy and density
   Barbara Sandhoefer     : DKH picture change effects
   Avijit Sen             : IP-ROCIS
   Kantharuban Sivalingam : CASSCF convergence, NEVPT2, FIC-MRCI
   Bernardo de Souza      : ESD, SOC TD-DFT
   Georgi Stoychev        : AutoAux, RI-MP2 NMR, DLPNO-MP2 response
   Willem Van den Heuvel  : Paramagnetic NMR
   Boris Wezisla          : Elementary symmetry handling
   Frank Wennmohs         : Technical directorship


 We gratefully acknowledge several colleagues who have allowed us to
 interface, adapt or use parts of their codes:
   Stefan Grimme, W. Hujo, H. Kruse, P. Pracht,  : VdW corrections, initial TS optimization,
                  C. Bannwarth, S. Ehlert          DFT functionals, gCP, sTDA/sTD-DF
   Ed Valeev, F. Pavosevic, A. Kumar             : LibInt (2-el integral package), F12 methods
   Garnet Chan, S. Sharma, J. Yang, R. Olivares  : DMRG
   Ulf Ekstrom                                   : XCFun DFT Library
   Mihaly Kallay                                 : mrcc  (arbitrary order and MRCC methods)
   Jiri Pittner, Ondrej Demel                    : Mk-CCSD
   Frank Weinhold                                : gennbo (NPA and NBO analysis)
   Christopher J. Cramer and Donald G. Truhlar   : smd solvation model
   Lars Goerigk                                  : TD-DFT with DH, B97 family of functionals
   V. Asgeirsson, H. Jonsson                     : NEB implementation
   FAccTs GmbH                                   : IRC, NEB, NEB-TS, DLPNO-Multilevel, CI-OPT
                                                   MM, QMMM, 2- and 3-layer-ONIOM, Crystal-QMMM,
                                                   LR-CPCM, SF, NACMEs, symmetry and pop. for TD-DFT,
                                                   nearIR, NL-DFT gradient (VV10), updates on ESD,
                                                   ML-optimized integration grids
   S Lehtola, MJT Oliveira, MAL Marques          : LibXC Library
   Liviu Ungur et al                             : ANISO software


 Your calculation uses the libint2 library for the computation of 2-el integrals
 For citations please refer to: http://libint.valeyev.net

 Your ORCA version has been built with support for libXC version: 5.1.0
 For citations please refer to: https://tddft.org/programs/libxc/

 This ORCA versions uses:
   CBLAS   interface :  Fast vector & matrix operations
   LAPACKE interface :  Fast linear algebra routines
   SCALAPACK package :  Parallel linear algebra routines
   Shared memory     :  Shared parallel matrices
   BLAS/LAPACK       :  OpenBLAS 0.3.15  USE64BITINT DYNAMIC_ARCH NO_AFFINITY Prescott SINGLE_THREADED
        Core in use  :  Prescott
   Copyright (c) 2011-2014, The OpenBLAS Project




***************************************
The coordinates will be read from file: 1ABisopooh1w-1010000_7_18-str7-str7.xyz
***************************************


Your calculation utilizes the atom-pairwise dispersion correction
with the Becke-Johnson damping scheme (D3BJ)
Cite in your paper:
S.Grimme, S.Ehrlich, L.Goerigk, J Comput Chem, (2011), 32, 1456–1465 
S.Grimme, J.Antony, S.Ehrlich and H.Krieg, J.Chem.Phys., 132, (2010), 154104 
   

================================================================================

----- Orbital basis set information -----
Your calculation utilizes the basis: aug-cc-pVTZ 
    H, B-Ne : Obtained from the ccRepo (grant-hill.group.shef.ac.uk/ccrepo) Feb. 2017
              R. A. Kendall, T. H. Dunning, Jr., R. J. Harrison, J. Chem. Phys. 96, 6796 (1992)
         He : Obtained from the ccRepo (grant-hill.group.shef.ac.uk/ccrepo) Feb. 2017
              D. E. Woon, T. H. Dunning, Jr., J. Chem. Phys. 100, 2975 (1994)
  Li-Be, Na : Obtained from the ccRepo (grant-hill.group.shef.ac.uk/ccrepo) Feb. 2017
              B. P. Prascher, D. E. Woon, K. A. Peterson, T. H. Dunning, Jr., A. K. Wilson, Theor. Chem. Acc. 128, 69 (2011)
         Mg : Obtained from the Peterson Research Group Website (tyr0.chem.wsu.edu/~kipeters) Feb. 2017
              B. P. Prascher, D. E. Woon, K. A. Peterson, T. H. Dunning, Jr., A. K. Wilson, Theor. Chem. Acc. 128, 69 (2011)
      Al-Ar : Obtained from the ccRepo (grant-hill.group.shef.ac.uk/ccrepo) Feb. 2017
              D. E. Woon, T. H. Dunning, Jr., J. Chem. Phys. 98, 1358 (1993)
      Sc-Zn : Obtained from the ccRepo (grant-hill.group.shef.ac.uk/ccrepo) Feb. 2017
              N. B. Balabanov, K. A. Peterson, J. Chem. Phys. 123, 064107 (2005)
              N. B. Balabanov, K. A. Peterson, J. Chem. Phys. 125, 074110 (2006)
      Ga-Kr : Obtained from the ccRepo (grant-hill.group.shef.ac.uk/ccrepo) Feb. 2017
              A. K. Wilson, D. E. Woon, K. A. Peterson, T. H. Dunning, Jr., J. Chem. Phys. 110, 7667 (1999)
     Ag, Au : Obtained from the Peterson Research Group Website (tyr0.chem.wsu.edu/~kipeters) Feb. 2017
              K. A. Peterson, C. Puzzarini, Theor. Chem. Acc. 114, 283 (2005)

The basis set includes element-specific modifications.

Your calculation utilizes the basis: aug-cc-pVTZ-PP 
       Ca, Sr, Ba, Ra : Obtained from the Peterson Research Group Website (tyr0.chem.wsu.edu/~kipeters) Feb. 2017
                        H. Li, H. Feng, W. Sun, Y. Zhang, Q. Fan, K. A. Peterson, Y. Xie, H. F. Schaefer III, Mol. Phys. 111, 2292 (2013)
  Cu-Zn, Ag-Cd, Au-Hg : Obtained from the ccRepo (grant-hill.group.shef.ac.uk/ccrepo) Feb. 2017
                        K. A. Peterson, C. Puzzarini, Theor. Chem. Acc. 114, 283 (2005)
  Ga-Kr, In-Xe, Tl-Rn : Obtained from the ccRepo (grant-hill.group.shef.ac.uk/ccrepo) Feb. 2017
                        K. A. Peterson, J. Chem. Phys. 119, 11099 (2003)
                        K. A. Peterson, D. Figgen, E. Goll, H. Stoll, M. Dolg, J. Chem. Phys. 119, 11113 (2003)
                 Y-Pd : Obtained from the ccRepo (grant-hill.group.shef.ac.uk/ccrepo) Feb. 2017
                        K. A. Peterson, D. Figgen, M. Dolg, H. Stoll, J. Chem. Phys. 126, 124101 (2007)
                Hf-Pt : Obtained from the ccRepo (grant-hill.group.shef.ac.uk/ccrepo) Feb. 2017
                        D. Figgen, K. A. Peterson, M. Dolg, H. Stoll, J. Chem. Phys. 130, 164108 (2009)

----- AuxJ basis set information -----
Your calculation utilizes the auxiliary basis: def2/J
   F. Weigend, Phys. Chem. Chem. Phys. 8, 1057 (2006).

================================================================================
                                        WARNINGS
                       Please study these warnings very carefully!
================================================================================


INFO   : the flag for use of the SHARK integral package has been found!

================================================================================
                                       INPUT FILE
================================================================================
NAME = 1ABisopooh1w-1010000_7_18-str7-str7.inp
|  1> ! aug-cc-pVTZ wb97X-D3BJ FREQ
|  2> %pal nprocs 4
|  3>     end
|  4> %Maxcore 3000.00
|  5> %basis
|  6> 	NewGTO I "aug-cc-pVTZ-PP" end
|  7> 	NewECP I "SK-MCDHF-RSC" end
|  8> end
|  9> %geom
| 10>         maxIter 500
| 11> end
| 12> * xyzfile 0 1 1ABisopooh1w-1010000_7_18-str7-str7.xyz
| 13>   
| 14> 
| 15>                          ****END OF INPUT****
================================================================================

                       ****************************
                       * Single Point Calculation *
                       ****************************

---------------------------------
CARTESIAN COORDINATES (ANGSTROEM)
---------------------------------
  O     -3.045368   -0.119813   -0.504801
  H     -3.368810   -0.877355   -0.996837
  H     -2.294985    0.232628   -1.016985
  C      2.411701    0.149225   -1.426615
  C      1.718507   -0.544176   -0.532995
  H      3.152360   -0.334857   -2.051441
  H      2.288543    1.219327   -1.558549
  H      1.884116   -1.612382   -0.427225
  C      0.696437    0.017764    0.429129
  C      1.351283    0.344165    1.770140
  C     -0.010288    1.253315   -0.127043
  O     -0.223148   -1.079812    0.561276
  H      0.595525    0.654049    2.491209
  H      1.861287   -0.539000    2.156499
  H      2.083942    1.143211    1.645168
  O     -1.232295   -0.742311    1.509674
  H     -1.998195   -0.589389    0.917987
  O     -0.658347    1.015793   -1.373255
  H     -0.784834    1.565835    0.572159
  H      0.709831    2.072558   -0.220802
  H     -0.040287    0.543684   -1.940814

----------------------------
CARTESIAN COORDINATES (A.U.)
----------------------------
  NO LB      ZA    FRAG     MASS         X           Y           Z
   0 O     8.0000    0    15.999   -5.754912   -0.226413   -0.953935
   1 H     1.0000    0     1.008   -6.366129   -1.657961   -1.883750
   2 H     1.0000    0     1.008   -4.336893    0.439602   -1.921824
   3 C     6.0000    0    12.011    4.557454    0.281994   -2.695912
   4 C     6.0000    0    12.011    3.247508   -1.028343   -1.007215
   5 H     1.0000    0     1.008    5.957097   -0.632787   -3.876663
   6 H     1.0000    0     1.008    4.324719    2.304195   -2.945230
   7 H     1.0000    0     1.008    3.560463   -3.046960   -0.807337
   8 C     6.0000    0    12.011    1.316076    0.033569    0.810936
   9 C     6.0000    0    12.011    2.553555    0.650379    3.345079
  10 C     6.0000    0    12.011   -0.019441    2.368423   -0.240077
  11 O     8.0000    0    15.999   -0.421688   -2.040548    1.060658
  12 H     1.0000    0     1.008    1.125380    1.235974    4.707702
  13 H     1.0000    0     1.008    3.517323   -1.018563    4.075192
  14 H     1.0000    0     1.008    3.938079    2.160355    3.108917
  15 O     8.0000    0    15.999   -2.328701   -1.402764    2.852871
  16 H     1.0000    0     1.008   -3.776042   -1.113783    1.734743
  17 O     8.0000    0    15.999   -1.244096    1.919570   -2.595076
  18 H     1.0000    0     1.008   -1.483121    2.958999    1.081223
  19 H     1.0000    0     1.008    1.341385    3.916567   -0.417254
  20 H     1.0000    0     1.008   -0.076131    1.027414   -3.667607

--------------------------------
INTERNAL COORDINATES (ANGSTROEM)
--------------------------------
 O      0   0   0     0.000000000000     0.00000000     0.00000000
 H      1   0   0     0.959471609789     0.00000000     0.00000000
 H      1   2   0     0.974485752617   105.99755596     0.00000000
 C      3   1   2     4.725213484130   143.72544727   264.42963790
 C      4   3   1     1.326604098896    55.27392573     0.96142014
 H      4   3   1     1.083198672244   137.64488645   100.45215457
 H      4   3   1     1.085215894736    83.11322592   222.96819984
 H      5   4   3     1.086129635993   119.99918513   128.75991980
 C      5   4   3     1.511980543185   125.98717299   307.01079078
 C      9   5   4     1.527635715687   110.37942460   266.14273151
 C      9   5   4     1.528193518564   112.42736149    29.60868189
 O      9   5   4     1.437974540734   101.95182087   148.27594703
 H     10   9   5     1.089558591290   110.14395918   185.65138927
 H     10   9   5     1.090577360906   109.78099068   305.28304629
 H     10   9   5     1.091274677052   110.10347741    64.83868084
 O     12   9   5     1.425392961945   109.46132770   176.78396916
 H     16  12   9     0.979837623956   100.86914277   106.46415789
 O     11   9   5     1.424584688071   113.20024101    57.10641754
 H     11   9   5     1.089253617242   109.09869820   175.63344876
 H     11   9   5     1.094769010055   109.39001210   293.50006990
 H     18  11   9     0.962812497734   107.78250493   313.19628438

---------------------------
INTERNAL COORDINATES (A.U.)
---------------------------
 O      0   0   0     0.000000000000     0.00000000     0.00000000
 H      1   0   0     1.813138575774     0.00000000     0.00000000
 H      1   2   0     1.841511193855   105.99755596     0.00000000
 C      3   1   2     8.929359409317   143.72544727   264.42963790
 C      4   3   1     2.506918435050    55.27392573     0.96142014
 H      4   3   1     2.046948839169   137.64488645   100.45215457
 H      4   3   1     2.050760837230    83.11322592   222.96819984
 H      5   4   3     2.052487557963   119.99918513   128.75991980
 C      5   4   3     2.857229146437   125.98717299   307.01079078
 C      9   5   4     2.886813135045   110.37942460   266.14273151
 C      9   5   4     2.887867229720   112.42736149    29.60868189
 O      9   5   4     2.717378069539   101.95182087   148.27594703
 H     10   9   5     2.058967344399   110.14395918   185.65138927
 H     10   9   5     2.060892539966   109.78099068   305.28304629
 H     10   9   5     2.062210276511   110.10347741    64.83868084
 O     12   9   5     2.693602331295   109.46132770   176.78396916
 H     16  12   9     1.851624764989   100.86914277   106.46415789
 O     11   9   5     2.692074915033   113.20024101    57.10641754
 H     11   9   5     2.058391026970   109.09869820   175.63344876
 H     11   9   5     2.068813608908   109.39001210   293.50006990
 H     18  11   9     1.819451939034   107.78250493   313.19628438

---------------------
BASIS SET INFORMATION
---------------------
There are 3 groups of distinct atoms

 Group   1 Type O   : 19s6p3d2f contracted to 5s4p3d2f pattern {88111/3111/111/11}
 Group   2 Type H   : 6s3p2d contracted to 4s3p2d pattern {3111/111/11}
 Group   3 Type C   : 19s6p3d2f contracted to 5s4p3d2f pattern {88111/3111/111/11}

Atom   0O    basis set group =>   1
Atom   1H    basis set group =>   2
Atom   2H    basis set group =>   2
Atom   3C    basis set group =>   3
Atom   4C    basis set group =>   3
Atom   5H    basis set group =>   2
Atom   6H    basis set group =>   2
Atom   7H    basis set group =>   2
Atom   8C    basis set group =>   3
Atom   9C    basis set group =>   3
Atom  10C    basis set group =>   3
Atom  11O    basis set group =>   1
Atom  12H    basis set group =>   2
Atom  13H    basis set group =>   2
Atom  14H    basis set group =>   2
Atom  15O    basis set group =>   1
Atom  16H    basis set group =>   2
Atom  17O    basis set group =>   1
Atom  18H    basis set group =>   2
Atom  19H    basis set group =>   2
Atom  20H    basis set group =>   2
---------------------------------
AUXILIARY/J BASIS SET INFORMATION
---------------------------------
There are 3 groups of distinct atoms

 Group   1 Type O   : 12s5p4d2f1g contracted to 6s4p3d1f1g pattern {711111/2111/211/2/1}
 Group   2 Type H   : 5s2p1d contracted to 3s1p1d pattern {311/2/1}
 Group   3 Type C   : 12s5p4d2f1g contracted to 6s4p3d1f1g pattern {711111/2111/211/2/1}

Atom   0O    basis set group =>   1
Atom   1H    basis set group =>   2
Atom   2H    basis set group =>   2
Atom   3C    basis set group =>   3
Atom   4C    basis set group =>   3
Atom   5H    basis set group =>   2
Atom   6H    basis set group =>   2
Atom   7H    basis set group =>   2
Atom   8C    basis set group =>   3
Atom   9C    basis set group =>   3
Atom  10C    basis set group =>   3
Atom  11O    basis set group =>   1
Atom  12H    basis set group =>   2
Atom  13H    basis set group =>   2
Atom  14H    basis set group =>   2
Atom  15O    basis set group =>   1
Atom  16H    basis set group =>   2
Atom  17O    basis set group =>   1
Atom  18H    basis set group =>   2
Atom  19H    basis set group =>   2
Atom  20H    basis set group =>   2


           ************************************************************
           *        Program running with 4 parallel MPI-processes     *
           *              working on a common directory               *
           ************************************************************
------------------------------------------------------------------------------
                           ORCA GTO INTEGRAL CALCULATION
                           -- RI-GTO INTEGRALS CHOSEN --
------------------------------------------------------------------------------
------------------------------------------------------------------------------
                   ___                                                        
                  /   \      - P O W E R E D   B Y -                         
                 /     \                                                     
                 |  |  |   _    _      __       _____    __    __             
                 |  |  |  | |  | |    /  \     |  _  \  |  |  /  |          
                  \  \/   | |  | |   /    \    | | | |  |  | /  /          
                 / \  \   | |__| |  /  /\  \   | |_| |  |  |/  /          
                |  |  |   |  __  | /  /__\  \  |    /   |      \           
                |  |  |   | |  | | |   __   |  |    \   |  |\   \          
                \     /   | |  | | |  |  |  |  | |\  \  |  | \   \       
                 \___/    |_|  |_| |__|  |__|  |_| \__\ |__|  \__/        
                                                                              
                      - O R C A' S   B I G   F R I E N D -                    
                                      &                                       
                       - I N T E G R A L  F E E D E R -                       
                                                                              
 v1 FN, 2020, v2 2021                                                         
------------------------------------------------------------------------------


Reading SHARK input file 1ABisopooh1w-1010000_7_18-str7-str7.SHARKINP.tmp ... ok
----------------------
SHARK INTEGRAL PACKAGE
----------------------

Number of atoms                             ...     21
Number of basis functions                   ...    744
Number of shells                            ...    288
Maximum angular momentum                    ...      3
Integral batch strategy                     ... SHARK/LIBINT Hybrid
RI-J (if used) integral strategy            ... SPLIT-RIJ (Revised 2003 algorithm where possible)
Printlevel                                  ...      1
Contraction scheme used                     ... PARTIAL GENERAL contraction
Coulomb Range Separation                    ... NOT USED
Exchange Range Separation                   ... Long Range
   Mu parameter                             ...  0.300000
   Scaling (regular/separated)              ...  0.167000  0.833000
Finite Nucleus Model                        ... NOT USED
Auxiliary Coulomb fitting basis             ... AVAILABLE
   # of basis functions in Aux-J            ...    573
   # of shells in Aux-J                     ...    195
   Maximum angular momentum in Aux-J        ...      4
Auxiliary J/K fitting basis                 ... NOT available
Auxiliary Correlation fitting basis         ... NOT available
Auxiliary 'external' fitting basis          ... NOT available
Integral threshold                          ...     1.000000e-10
Primitive cut-off                           ...     1.000000e-11
Primitive pair pre-selection threshold      ...     1.000000e-11

Calculating pre-screening integrals         ... done (  0.1 sec) Dimension = 288
Calculating pre-screening integrals (ORCA)  ... done (  0.2 sec) Dimension = 234
Organizing shell pair data                  ... done (  0.4 sec)
Shell pair information
Total number of shell pairs                 ...     41616
Shell pairs after pre-screening             ...     35186
Total number of primitive shell pairs       ...     54678
Primitive shell pairs kept                  ...     42671
          la=0 lb=0:   7918 shell pairs
          la=1 lb=0:   9128 shell pairs
          la=1 lb=1:   2472 shell pairs
          la=2 lb=0:   6389 shell pairs
          la=2 lb=1:   3441 shell pairs
          la=2 lb=2:   1241 shell pairs
          la=3 lb=0:   2312 shell pairs
          la=3 lb=1:   1237 shell pairs
          la=3 lb=2:    881 shell pairs
          la=3 lb=3:    167 shell pairs

Calculating one electron integrals          ... done (  0.1 sec)
Calculating RI/J V-Matrix + Cholesky decomp.... done (  0.0 sec)
Calculating Nuclear repulsion               ... done (  0.0 sec) ENN=    515.979539400555 Eh

SHARK setup successfully completed in   1.1 seconds

Maximum memory used throughout the entire GTOINT-calculation: 46.2 MB


           ************************************************************
           *        Program running with 4 parallel MPI-processes     *
           *              working on a common directory               *
           ************************************************************
-------------------------------------------------------------------------------
                                 ORCA SCF
-------------------------------------------------------------------------------

------------
SCF SETTINGS
------------
Hamiltonian:
 Density Functional     Method          .... DFT(GTOs)
 Exchange Functional    Exchange        .... WB97X-V
 Correlation Functional Correlation     .... WB97X-V
 Gradients option       PostSCFGGA      .... off
 Hybrid DFT is turned on
   Fraction HF Exchange ScalHFX         ....  0.167000
   Scaling of DF-GGA-X  ScalDFX         ....  0.000000
   Scaling of DF-GGA-C  ScalDFC         ....  1.000000
   Scaling of DF-LDA-C  ScalLDAC        ....  1.000000
   Perturbative correction              ....  0.000000
   Density functional embedding theory  .... OFF
 Long-range corrected/Screened/Range-Separated Hybrid DFT is turned on
   Amount of maximum screened exact exchange              ....  0.833000
   Range separation parameter mu (erf(mu*r12)/r12)        ....  0.300000
 RI-approximation to the Coulomb term is turned on
   Number of AuxJ basis functions       .... 573
   RIJ-COSX (HFX calculated with COS-X)).... on


General Settings:
 Integral files         IntName         .... 1ABisopooh1w-1010000_7_18-str7-str7
 Hartree-Fock type      HFTyp           .... RHF
 Total Charge           Charge          ....    0
 Multiplicity           Mult            ....    1
 Number of Electrons    NEL             ....   74
 Basis Dimension        Dim             ....  690
 Nuclear Repulsion      ENuc            ....    515.9795394006 Eh

Convergence Acceleration:
 DIIS                   CNVDIIS         .... on
   Start iteration      DIISMaxIt       ....    12
   Startup error        DIISStart       ....  0.200000
   # of expansion vecs  DIISMaxEq       ....     5
   Bias factor          DIISBfac        ....   1.050
   Max. coefficient     DIISMaxC        ....  10.000
 Trust-Rad. Augm. Hess. CNVTRAH         .... auto
   Auto Start mean grad. ratio tolernc. ....  1.125000
   Auto Start start iteration           ....    20
   Auto Start num. interpolation iter.  ....    10
   Max. Number of Micro iterations      ....    16
   Max. Number of Macro iterations      .... Maxiter - #DIIS iter
   Number of Davidson start vectors     ....     2
   Converg. threshold I  (grad. norm)   ....   5.000e-05
   Converg. threshold II (energy diff.) ....   1.000e-06
   Grad. Scal. Fac. for Micro threshold ....   0.100
   Minimum threshold for Micro iter.    ....   0.010
   NR start threshold (gradient norm)   ....   0.001
   Initial trust radius                 ....   0.400
   Minimum AH scaling param. (alpha)    ....   1.000
   Maximum AH scaling param. (alpha)    .... 1000.000
   Orbital update algorithm             .... Taylor
   White noise on init. David. guess    .... on
   Maximum white noise                  ....   0.010
   Quad. conv. algorithm                .... NR
 SOSCF                  CNVSOSCF        .... on
   Start iteration      SOSCFMaxIt      ....   150
   Startup grad/error   SOSCFStart      ....  0.003300
 Level Shifting         CNVShift        .... on
   Level shift para.    LevelShift      ....    0.2500
   Turn off err/grad.   ShiftErr        ....    0.0010
 Zerner damping         CNVZerner       .... off
 Static damping         CNVDamp         .... on
   Fraction old density DampFac         ....    0.7000
   Max. Damping (<1)    DampMax         ....    0.9800
   Min. Damping (>=0)   DampMin         ....    0.0000
   Turn off err/grad.   DampErr         ....    0.1000
 Fernandez-Rico         CNVRico         .... off

SCF Procedure:
 Maximum # iterations   MaxIter         ....   125
 SCF integral mode      SCFMode         .... Direct
   Integral package                     .... SHARK and LIBINT hybrid scheme
 Reset frequency        DirectResetFreq ....    20
 Integral Threshold     Thresh          ....  1.000e-10 Eh
 Primitive CutOff       TCut            ....  1.000e-11 Eh

Convergence Tolerance:
 Convergence Check Mode ConvCheckMode   .... Total+1el-Energy
 Convergence forced     ConvForced      .... 0
 Energy Change          TolE            ....  1.000e-06 Eh
 1-El. energy change                    ....  1.000e-03 Eh
 Orbital Gradient       TolG            ....  5.000e-05
 Orbital Rotation angle TolX            ....  5.000e-05
 DIIS Error             TolErr          ....  1.000e-06


Diagonalization of the overlap matrix:
Smallest eigenvalue                        ... 1.701e-06
Time for diagonalization                   ...    0.177 sec
Threshold for overlap eigenvalues          ... 1.000e-08
Number of eigenvalues below threshold      ... 0
Time for construction of square roots      ...    0.150 sec
Total time needed                          ...    0.330 sec

Time for model grid setup =    0.197 sec

------------------------------
INITIAL GUESS: MODEL POTENTIAL
------------------------------
Loading Hartree-Fock densities                     ... done
Calculating cut-offs                               ... done
Initializing the effective Hamiltonian             ... done
Setting up the integral package (SHARK)            ... done
Starting the Coulomb interaction                   ... done (   0.4 sec)
Reading the grid                                   ... done
Mapping shells                                     ... done
Starting the XC term evaluation                    ... done (   0.8 sec)
  promolecular density results
     # of electrons  =     73.990520798
     EX              =    -41.827248880
     EC              =     -3.076181701
     EX+EC           =    -44.903430581
Transforming the Hamiltonian                       ... done (   0.2 sec)
Diagonalizing the Hamiltonian                      ... done (   0.2 sec)
Back transforming the eigenvectors                 ... done (   0.1 sec)
Now organizing SCF variables                       ... done
                      ------------------
                      INITIAL GUESS DONE (   1.8 sec)
                      ------------------
-------------------
DFT GRID GENERATION
-------------------

General Integration Accuracy     IntAcc      ... 4.388
Radial Grid Type                 RadialGrid  ... OptM3 with GC (2021)
Angular Grid (max. ang.)         AngularGrid ... 4 (Lebedev-302)
Angular grid pruning method      GridPruning ... 4 (adaptive)
Weight generation scheme         WeightScheme... Becke
Basis function cutoff            BFCut       ... 1.0000e-10
Integration weight cutoff        WCut        ... 1.0000e-14
Angular grids for H and He will be reduced by one unit
Partially contracted basis set               ... off
Rotationally invariant grid construction     ... off

Total number of grid points                  ...    97264
Total number of batches                      ...     1531
Average number of points per batch           ...       63
Average number of grid points per atom       ...     4632
Time for grid setup =    0.769 sec

--------------------
COSX GRID GENERATION
--------------------

GRIDX 1
-------
General Integration Accuracy     IntAcc      ... 3.816
Radial Grid Type                 RadialGrid  ... OptM3 with GC (2021)
Angular Grid (max. ang.)         AngularGrid ... 1 (Lebedev-50)
Angular grid pruning method      GridPruning ... 4 (adaptive)
Weight generation scheme         WeightScheme... Becke
Basis function cutoff            BFCut       ... 1.0000e-10
Integration weight cutoff        WCut        ... 1.0000e-14
Angular grids for H and He will be reduced by one unit
Partially contracted basis set               ... on
Rotationally invariant grid construction     ... off

Total number of grid points                  ...    12172
Total number of batches                      ...      200
Average number of points per batch           ...       60
Average number of grid points per atom       ...      580
UseSFitting                                  ... on

GRIDX 2
-------
General Integration Accuracy     IntAcc      ... 4.020
Radial Grid Type                 RadialGrid  ... OptM3 with GC (2021)
Angular Grid (max. ang.)         AngularGrid ... 2 (Lebedev-110)
Angular grid pruning method      GridPruning ... 4 (adaptive)
Weight generation scheme         WeightScheme... Becke
Basis function cutoff            BFCut       ... 1.0000e-10
Integration weight cutoff        WCut        ... 1.0000e-14
Angular grids for H and He will be reduced by one unit
Partially contracted basis set               ... on
Rotationally invariant grid construction     ... off

Total number of grid points                  ...    28612
Total number of batches                      ...      459
Average number of points per batch           ...       62
Average number of grid points per atom       ...     1362
UseSFitting                                  ... on

GRIDX 3
-------
General Integration Accuracy     IntAcc      ... 4.338
Radial Grid Type                 RadialGrid  ... OptM3 with GC (2021)
Angular Grid (max. ang.)         AngularGrid ... 3 (Lebedev-194)
Angular grid pruning method      GridPruning ... 4 (adaptive)
Weight generation scheme         WeightScheme... Becke
Basis function cutoff            BFCut       ... 1.0000e-10
Integration weight cutoff        WCut        ... 1.0000e-14
Angular grids for H and He will be reduced by one unit
Partially contracted basis set               ... on
Rotationally invariant grid construction     ... off

Total number of grid points                  ...    63879
Total number of batches                      ...     1009
Average number of points per batch           ...       63
Average number of grid points per atom       ...     3042
UseSFitting                                  ... on

Time for X-Grid setup             =    2.908 sec

 re-compute Schwartz prescreening matrix in partically contracted basis (1) ...done (   0.104 sec)
--------------
SCF ITERATIONS
--------------
ITER       Energy         Delta-E        Max-DP      RMS-DP      [F,P]     Damp
               ***  Starting incremental Fock matrix formation  ***
  0   -498.7520021151   0.000000000000 0.11074293  0.00074145  0.1736926 0.7000
  1   -498.7956812990  -0.043679183977 0.07457709  0.00055689  0.1122644 0.7000
                               ***Turning on DIIS***
  2   -498.8191189680  -0.023437669003 0.16574486  0.00133472  0.0766225 0.0000
  3   -498.8647378886  -0.045618920555 0.02675820  0.00029299  0.0379424 0.0000
  4   -498.8692004778  -0.004462589235 0.00875737  0.00011589  0.0109863 0.0000
  5   -498.8695426194  -0.000342141621 0.00546405  0.00006545  0.0040229 0.0000
                      *** Initiating the SOSCF procedure ***
                           *** Shutting down DIIS ***
                      *** Re-Reading the Fockian *** 
                      *** Removing any level shift *** 
ITER      Energy       Delta-E        Grad      Rot      Max-DP    RMS-DP
  6   -498.86962264  -0.0000800161  0.000312  0.000312  0.004206  0.000043
               *** Restarting incremental Fock matrix formation ***
  7   -498.86964971  -0.0000270767  0.000156  0.000368  0.026587  0.000202
  8   -498.86965268  -0.0000029687  0.000088  0.000246  0.012634  0.000107
  9   -498.86965351  -0.0000008332  0.000028  0.000060  0.009828  0.000079
 10   -498.86965368  -0.0000001689  0.000017  0.000018  0.006203  0.000042
                 **** Energy Check signals convergence ****
              ***Rediagonalizing the Fockian in SOSCF/NRSCF***

               *****************************************************
               *                     SUCCESS                       *
               *           SCF CONVERGED AFTER  11 CYCLES          *
               *****************************************************

Old exchange energy                            =    -20.229421338 Eh
New exchange energy                            =    -20.229454320 Eh
Exchange energy change after final integration =     -0.000032982 Eh
Total energy after final integration           =   -498.869686706 Eh
Final COS-X integration done in                =    54.576 sec

----------------
TOTAL SCF ENERGY
----------------

Total Energy       :         -498.86968671 Eh          -13574.93431 eV

Components:
Nuclear Repulsion  :          515.97953940 Eh           14040.51707 eV
Electronic Energy  :        -1014.84922611 Eh          -27615.45138 eV
One Electron Energy:        -1704.82869188 Eh          -46390.74717 eV
Two Electron Energy:          689.97946577 Eh           18775.29578 eV
Max COSX asymmetry :            0.00000784 Eh               0.00021 eV

Virial components:
Potential Energy   :         -994.89678310 Eh          -27072.51781 eV
Kinetic Energy     :          496.02709639 Eh           13497.58350 eV
Virial Ratio       :            2.00573072


DFT components:
N(Alpha)           :       37.000031212700 electrons
N(Beta)            :       37.000031212700 electrons
N(Total)           :       74.000062425401 electrons
E(X)               :      -42.766861036772 Eh       
E(C)               :       -3.101097638565 Eh       
E(XC)              :      -45.867958675338 Eh       
DFET-embed. en.    :        0.000000000000 Eh       

---------------
SCF CONVERGENCE
---------------

  Last Energy change         ...   -4.0461e-08  Tolerance :   1.0000e-06
  Last MAX-Density change    ...    3.5527e-15  Tolerance :   1.0000e-05
  Last RMS-Density change    ...    1.3288e-17  Tolerance :   1.0000e-06
  Last Orbital Gradient      ...    5.1220e-06  Tolerance :   5.0000e-05
  Last Orbital Rotation      ...    1.2053e-05  Tolerance :   5.0000e-05

             **** THE GBW FILE WAS UPDATED (1ABisopooh1w-1010000_7_18-str7-str7.gbw) ****
             **** DENSITY 1ABisopooh1w-1010000_7_18-str7-str7.scfp WAS UPDATED ****
             **** ENERGY FILE WAS UPDATED (1ABisopooh1w-1010000_7_18-str7-str7.en.tmp) ****
             **** THE GBW FILE WAS UPDATED (1ABisopooh1w-1010000_7_18-str7-str7.gbw) ****
             **** DENSITY 1ABisopooh1w-1010000_7_18-str7-str7.scfp WAS UPDATED ****
----------------
ORBITAL ENERGIES
----------------

  NO   OCC          E(Eh)            E(eV) 
   0   2.0000     -19.271226      -524.3967 
   1   2.0000     -19.252718      -523.8931 
   2   2.0000     -19.243005      -523.6288 
   3   2.0000     -19.222491      -523.0706 
   4   2.0000     -10.349020      -281.6112 
   5   2.0000     -10.332881      -281.1720 
   6   2.0000     -10.299903      -280.2746 
   7   2.0000     -10.290613      -280.0218 
   8   2.0000     -10.270530      -279.4753 
   9   2.0000      -1.253888       -34.1200 
  10   2.0000      -1.180448       -32.1216 
  11   2.0000      -1.145758       -31.1777 
  12   2.0000      -1.042928       -28.3795 
  13   2.0000      -0.940185       -25.5837 
  14   2.0000      -0.888130       -24.1672 
  15   2.0000      -0.825487       -22.4626 
  16   2.0000      -0.761506       -20.7216 
  17   2.0000      -0.690662       -18.7939 
  18   2.0000      -0.666162       -18.1272 
  19   2.0000      -0.641809       -17.4645 
  20   2.0000      -0.626961       -17.0605 
  21   2.0000      -0.612267       -16.6606 
  22   2.0000      -0.596518       -16.2321 
  23   2.0000      -0.564642       -15.3647 
  24   2.0000      -0.555101       -15.1051 
  25   2.0000      -0.534631       -14.5480 
  26   2.0000      -0.519258       -14.1297 
  27   2.0000      -0.510017       -13.8783 
  28   2.0000      -0.507648       -13.8138 
  29   2.0000      -0.501953       -13.6588 
  30   2.0000      -0.472617       -12.8606 
  31   2.0000      -0.444863       -12.1053 
  32   2.0000      -0.436610       -11.8808 
  33   2.0000      -0.412932       -11.2364 
  34   2.0000      -0.403608       -10.9827 
  35   2.0000      -0.387318       -10.5395 
  36   2.0000      -0.370469       -10.0810 
  37   0.0000       0.022905         0.6233 
  38   0.0000       0.031983         0.8703 
  39   0.0000       0.034513         0.9392 
  40   0.0000       0.036712         0.9990 
  41   0.0000       0.046846         1.2747 
  42   0.0000       0.050361         1.3704 
  43   0.0000       0.053082         1.4444 
  44   0.0000       0.058218         1.5842 
  45   0.0000       0.064263         1.7487 
  46   0.0000       0.066899         1.8204 
  47   0.0000       0.074764         2.0344 
  48   0.0000       0.080509         2.1908 
  49   0.0000       0.089649         2.4395 
  50   0.0000       0.100904         2.7457 
  51   0.0000       0.104040         2.8311 
  52   0.0000       0.109493         2.9795 
  53   0.0000       0.110991         3.0202 
  54   0.0000       0.113988         3.1018 
  55   0.0000       0.120179         3.2702 
  56   0.0000       0.122350         3.3293 
  57   0.0000       0.127060         3.4575 
  58   0.0000       0.130616         3.5543 
  59   0.0000       0.132650         3.6096 
  60   0.0000       0.139169         3.7870 
  61   0.0000       0.149433         4.0663 
  62   0.0000       0.151780         4.1301 
  63   0.0000       0.156774         4.2660 
  64   0.0000       0.159530         4.3410 
  65   0.0000       0.162637         4.4256 
  66   0.0000       0.169252         4.6056 
  67   0.0000       0.173448         4.7198 
  68   0.0000       0.178489         4.8569 
  69   0.0000       0.182644         4.9700 
  70   0.0000       0.185254         5.0410 
  71   0.0000       0.198998         5.4150 
  72   0.0000       0.200784         5.4636 
  73   0.0000       0.210980         5.7411 
  74   0.0000       0.213245         5.8027 
  75   0.0000       0.221958         6.0398 
  76   0.0000       0.226381         6.1601 
  77   0.0000       0.232165         6.3175 
  78   0.0000       0.233864         6.3638 
  79   0.0000       0.238682         6.4949 
  80   0.0000       0.241470         6.5707 
  81   0.0000       0.249887         6.7998 
  82   0.0000       0.255627         6.9560 
  83   0.0000       0.260845         7.0979 
  84   0.0000       0.263375         7.1668 
  85   0.0000       0.271856         7.3976 
  86   0.0000       0.274048         7.4572 
  87   0.0000       0.276362         7.5202 
  88   0.0000       0.283737         7.7209 
  89   0.0000       0.288593         7.8530 
  90   0.0000       0.294626         8.0172 
  91   0.0000       0.299589         8.1522 
  92   0.0000       0.301806         8.2126 
  93   0.0000       0.306534         8.3412 
  94   0.0000       0.314729         8.5642 
  95   0.0000       0.317516         8.6401 
  96   0.0000       0.323403         8.8002 
  97   0.0000       0.328199         8.9307 
  98   0.0000       0.328876         8.9492 
  99   0.0000       0.334682         9.1072 
 100   0.0000       0.339727         9.2445 
 101   0.0000       0.352683         9.5970 
 102   0.0000       0.356218         9.6932 
 103   0.0000       0.362285         9.8583 
 104   0.0000       0.362988         9.8774 
 105   0.0000       0.369207        10.0466 
 106   0.0000       0.376900        10.2560 
 107   0.0000       0.381180        10.3724 
 108   0.0000       0.388423        10.5695 
 109   0.0000       0.388632        10.5752 
 110   0.0000       0.390973        10.6389 
 111   0.0000       0.398232        10.8364 
 112   0.0000       0.400439        10.8965 
 113   0.0000       0.404727        11.0132 
 114   0.0000       0.410549        11.1716 
 115   0.0000       0.413736        11.2583 
 116   0.0000       0.419363        11.4115 
 117   0.0000       0.423747        11.5307 
 118   0.0000       0.427653        11.6370 
 119   0.0000       0.432020        11.7559 
 120   0.0000       0.432603        11.7717 
 121   0.0000       0.437336        11.9005 
 122   0.0000       0.442604        12.0439 
 123   0.0000       0.446163        12.1407 
 124   0.0000       0.448547        12.2056 
 125   0.0000       0.457473        12.4485 
 126   0.0000       0.463367        12.6088 
 127   0.0000       0.464470        12.6389 
 128   0.0000       0.469422        12.7736 
 129   0.0000       0.473522        12.8852 
 130   0.0000       0.480336        13.0706 
 131   0.0000       0.483347        13.1526 
 132   0.0000       0.486677        13.2432 
 133   0.0000       0.494223        13.4485 
 134   0.0000       0.498556        13.5664 
 135   0.0000       0.505670        13.7600 
 136   0.0000       0.510719        13.8974 
 137   0.0000       0.520582        14.1658 
 138   0.0000       0.523040        14.2327 
 139   0.0000       0.527340        14.3496 
 140   0.0000       0.532366        14.4864 
 141   0.0000       0.536318        14.5940 
 142   0.0000       0.544869        14.8266 
 143   0.0000       0.545755        14.8508 
 144   0.0000       0.551380        15.0038 
 145   0.0000       0.557025        15.1574 
 146   0.0000       0.561351        15.2751 
 147   0.0000       0.576746        15.6940 
 148   0.0000       0.579429        15.7671 
 149   0.0000       0.583674        15.8826 
 150   0.0000       0.589771        16.0485 
 151   0.0000       0.592336        16.1183 
 152   0.0000       0.600923        16.3520 
 153   0.0000       0.607371        16.5274 
 154   0.0000       0.610953        16.6249 
 155   0.0000       0.624027        16.9806 
 156   0.0000       0.627077        17.0636 
 157   0.0000       0.634025        17.2527 
 158   0.0000       0.636461        17.3190 
 159   0.0000       0.647636        17.6231 
 160   0.0000       0.653882        17.7930 
 161   0.0000       0.657360        17.8877 
 162   0.0000       0.669636        18.2217 
 163   0.0000       0.670073        18.2336 
 164   0.0000       0.678147        18.4533 
 165   0.0000       0.681462        18.5435 
 166   0.0000       0.699668        19.0389 
 167   0.0000       0.705720        19.2036 
 168   0.0000       0.714779        19.4501 
 169   0.0000       0.725086        19.7306 
 170   0.0000       0.736790        20.0491 
 171   0.0000       0.741424        20.1752 
 172   0.0000       0.744428        20.2569 
 173   0.0000       0.746886        20.3238 
 174   0.0000       0.762317        20.7437 
 175   0.0000       0.772000        21.0072 
 176   0.0000       0.779347        21.2071 
 177   0.0000       0.782250        21.2861 
 178   0.0000       0.786821        21.4105 
 179   0.0000       0.791155        21.5284 
 180   0.0000       0.801654        21.8141 
 181   0.0000       0.809911        22.0388 
 182   0.0000       0.814142        22.1539 
 183   0.0000       0.821675        22.3589 
 184   0.0000       0.826021        22.4772 
 185   0.0000       0.831490        22.6260 
 186   0.0000       0.842164        22.9165 
 187   0.0000       0.851490        23.1702 
 188   0.0000       0.853458        23.2238 
 189   0.0000       0.859785        23.3959 
 190   0.0000       0.862606        23.4727 
 191   0.0000       0.870321        23.6826 
 192   0.0000       0.875819        23.8322 
 193   0.0000       0.879571        23.9344 
 194   0.0000       0.885263        24.0892 
 195   0.0000       0.892055        24.2741 
 196   0.0000       0.897432        24.4204 
 197   0.0000       0.904514        24.6131 
 198   0.0000       0.907432        24.6925 
 199   0.0000       0.913427        24.8556 
 200   0.0000       0.916766        24.9465 
 201   0.0000       0.923364        25.1260 
 202   0.0000       0.927790        25.2464 
 203   0.0000       0.933724        25.4079 
 204   0.0000       0.944705        25.7067 
 205   0.0000       0.952892        25.9295 
 206   0.0000       0.956125        26.0175 
 207   0.0000       0.961967        26.1764 
 208   0.0000       0.967016        26.3138 
 209   0.0000       0.971619        26.4391 
 210   0.0000       0.977820        26.6078 
 211   0.0000       0.986252        26.8373 
 212   0.0000       0.992223        26.9998 
 213   0.0000       0.995647        27.0929 
 214   0.0000       0.998320        27.1657 
 215   0.0000       1.008070        27.4310 
 216   0.0000       1.018009        27.7014 
 217   0.0000       1.026702        27.9380 
 218   0.0000       1.030254        28.0346 
 219   0.0000       1.036358        28.2007 
 220   0.0000       1.042642        28.3717 
 221   0.0000       1.050768        28.5929 
 222   0.0000       1.053878        28.6775 
 223   0.0000       1.066482        29.0204 
 224   0.0000       1.067376        29.0448 
 225   0.0000       1.075962        29.2784 
 226   0.0000       1.079296        29.3691 
 227   0.0000       1.082606        29.4592 
 228   0.0000       1.094741        29.7894 
 229   0.0000       1.099296        29.9134 
 230   0.0000       1.102630        30.0041 
 231   0.0000       1.118767        30.4432 
 232   0.0000       1.119536        30.4641 
 233   0.0000       1.126113        30.6431 
 234   0.0000       1.128630        30.7116 
 235   0.0000       1.130835        30.7716 
 236   0.0000       1.144012        31.1301 
 237   0.0000       1.145850        31.1802 
 238   0.0000       1.153877        31.3986 
 239   0.0000       1.159119        31.5412 
 240   0.0000       1.162357        31.6293 
 241   0.0000       1.173054        31.9204 
 242   0.0000       1.175291        31.9813 
 243   0.0000       1.187147        32.3039 
 244   0.0000       1.195789        32.5391 
 245   0.0000       1.197967        32.5983 
 246   0.0000       1.202195        32.7134 
 247   0.0000       1.215558        33.0770 
 248   0.0000       1.221534        33.2396 
 249   0.0000       1.228070        33.4175 
 250   0.0000       1.238076        33.6898 
 251   0.0000       1.244617        33.8677 
 252   0.0000       1.250872        34.0380 
 253   0.0000       1.256613        34.1942 
 254   0.0000       1.262845        34.3638 
 255   0.0000       1.269179        34.5361 
 256   0.0000       1.280874        34.8544 
 257   0.0000       1.289590        35.0915 
 258   0.0000       1.292520        35.1713 
 259   0.0000       1.305952        35.5368 
 260   0.0000       1.315045        35.7842 
 261   0.0000       1.322594        35.9896 
 262   0.0000       1.323581        36.0165 
 263   0.0000       1.327119        36.1127 
 264   0.0000       1.342376        36.5279 
 265   0.0000       1.347520        36.6679 
 266   0.0000       1.368238        37.2316 
 267   0.0000       1.372753        37.3545 
 268   0.0000       1.383711        37.6527 
 269   0.0000       1.387319        37.7509 
 270   0.0000       1.392094        37.8808 
 271   0.0000       1.398577        38.0572 
 272   0.0000       1.405892        38.2563 
 273   0.0000       1.412660        38.4404 
 274   0.0000       1.418136        38.5894 
 275   0.0000       1.430789        38.9338 
 276   0.0000       1.440912        39.2092 
 277   0.0000       1.449383        39.4397 
 278   0.0000       1.454072        39.5673 
 279   0.0000       1.462479        39.7961 
 280   0.0000       1.470426        40.0123 
 281   0.0000       1.481783        40.3214 
 282   0.0000       1.487587        40.4793 
 283   0.0000       1.488563        40.5059 
 284   0.0000       1.494421        40.6653 
 285   0.0000       1.504690        40.9447 
 286   0.0000       1.514722        41.2177 
 287   0.0000       1.517622        41.2966 
 288   0.0000       1.525423        41.5089 
 289   0.0000       1.533521        41.7292 
 290   0.0000       1.538655        41.8689 
 291   0.0000       1.547601        42.1124 
 292   0.0000       1.556695        42.3598 
 293   0.0000       1.570385        42.7324 
 294   0.0000       1.577039        42.9134 
 295   0.0000       1.582418        43.0598 
 296   0.0000       1.588377        43.2219 
 297   0.0000       1.589836        43.2616 
 298   0.0000       1.599377        43.5213 
 299   0.0000       1.610742        43.8305 
 300   0.0000       1.613402        43.9029 
 301   0.0000       1.619211        44.0610 
 302   0.0000       1.628172        44.3048 
 303   0.0000       1.631870        44.4054 
 304   0.0000       1.643858        44.7317 
 305   0.0000       1.648333        44.8534 
 306   0.0000       1.662987        45.2522 
 307   0.0000       1.668763        45.4094 
 308   0.0000       1.677882        45.6575 
 309   0.0000       1.689019        45.9605 
 310   0.0000       1.694746        46.1164 
 311   0.0000       1.702927        46.3390 
 312   0.0000       1.715987        46.6944 
 313   0.0000       1.720235        46.8100 
 314   0.0000       1.733461        47.1699 
 315   0.0000       1.743911        47.4542 
 316   0.0000       1.748232        47.5718 
 317   0.0000       1.750361        47.6297 
 318   0.0000       1.757715        47.8299 
 319   0.0000       1.773080        48.2480 
 320   0.0000       1.776103        48.3302 
 321   0.0000       1.779681        48.4276 
 322   0.0000       1.794871        48.8409 
 323   0.0000       1.801344        49.0171 
 324   0.0000       1.807610        49.1876 
 325   0.0000       1.814106        49.3643 
 326   0.0000       1.819945        49.5232 
 327   0.0000       1.831521        49.8382 
 328   0.0000       1.833320        49.8872 
 329   0.0000       1.851842        50.3912 
 330   0.0000       1.855230        50.4834 
 331   0.0000       1.866927        50.8017 
 332   0.0000       1.875396        51.0321 
 333   0.0000       1.880762        51.1781 
 334   0.0000       1.892702        51.5030 
 335   0.0000       1.904320        51.8192 
 336   0.0000       1.905710        51.8570 
 337   0.0000       1.913700        52.0744 
 338   0.0000       1.930075        52.5200 
 339   0.0000       1.940329        52.7990 
 340   0.0000       1.944508        52.9127 
 341   0.0000       1.967062        53.5265 
 342   0.0000       1.969743        53.5994 
 343   0.0000       1.976672        53.7880 
 344   0.0000       1.983211        53.9659 
 345   0.0000       1.998221        54.3744 
 346   0.0000       2.000294        54.4308 
 347   0.0000       2.017304        54.8936 
 348   0.0000       2.021312        55.0027 
 349   0.0000       2.042945        55.5914 
 350   0.0000       2.054608        55.9087 
 351   0.0000       2.072327        56.3909 
 352   0.0000       2.076084        56.4931 
 353   0.0000       2.084106        56.7114 
 354   0.0000       2.089527        56.8589 
 355   0.0000       2.103081        57.2278 
 356   0.0000       2.114663        57.5429 
 357   0.0000       2.126005        57.8515 
 358   0.0000       2.134294        58.0771 
 359   0.0000       2.141713        58.2790 
 360   0.0000       2.154437        58.6252 
 361   0.0000       2.157120        58.6982 
 362   0.0000       2.172477        59.1161 
 363   0.0000       2.190595        59.6091 
 364   0.0000       2.205438        60.0130 
 365   0.0000       2.208076        60.0848 
 366   0.0000       2.215344        60.2826 
 367   0.0000       2.236856        60.8679 
 368   0.0000       2.250816        61.2478 
 369   0.0000       2.255932        61.3870 
 370   0.0000       2.261307        61.5333 
 371   0.0000       2.271667        61.8152 
 372   0.0000       2.285098        62.1807 
 373   0.0000       2.304506        62.7088 
 374   0.0000       2.312685        62.9314 
 375   0.0000       2.322746        63.2051 
 376   0.0000       2.333533        63.4987 
 377   0.0000       2.339047        63.6487 
 378   0.0000       2.364554        64.3428 
 379   0.0000       2.378332        64.7177 
 380   0.0000       2.382223        64.8236 
 381   0.0000       2.395886        65.1954 
 382   0.0000       2.400854        65.3305 
 383   0.0000       2.413215        65.6669 
 384   0.0000       2.421406        65.8898 
 385   0.0000       2.434434        66.2443 
 386   0.0000       2.454860        66.8001 
 387   0.0000       2.468137        67.1614 
 388   0.0000       2.482327        67.5476 
 389   0.0000       2.493224        67.8441 
 390   0.0000       2.498490        67.9874 
 391   0.0000       2.501955        68.0817 
 392   0.0000       2.530509        68.8586 
 393   0.0000       2.552402        69.4544 
 394   0.0000       2.556387        69.5628 
 395   0.0000       2.580561        70.2206 
 396   0.0000       2.594995        70.6134 
 397   0.0000       2.606917        70.9378 
 398   0.0000       2.618916        71.2643 
 399   0.0000       2.635956        71.7280 
 400   0.0000       2.647981        72.0552 
 401   0.0000       2.658580        72.3436 
 402   0.0000       2.665147        72.5223 
 403   0.0000       2.672879        72.7327 
 404   0.0000       2.705771        73.6278 
 405   0.0000       2.727532        74.2199 
 406   0.0000       2.738273        74.5122 
 407   0.0000       2.748216        74.7828 
 408   0.0000       2.775806        75.5335 
 409   0.0000       2.785939        75.8093 
 410   0.0000       2.799474        76.1776 
 411   0.0000       2.805273        76.3354 
 412   0.0000       2.841117        77.3107 
 413   0.0000       2.853187        77.6392 
 414   0.0000       2.858184        77.7751 
 415   0.0000       2.882681        78.4417 
 416   0.0000       2.891039        78.6692 
 417   0.0000       2.922408        79.5228 
 418   0.0000       2.923335        79.5480 
 419   0.0000       2.937959        79.9459 
 420   0.0000       2.948827        80.2417 
 421   0.0000       2.958633        80.5085 
 422   0.0000       2.979230        81.0690 
 423   0.0000       2.983432        81.1833 
 424   0.0000       3.004148        81.7470 
 425   0.0000       3.012652        81.9784 
 426   0.0000       3.034309        82.5677 
 427   0.0000       3.050766        83.0156 
 428   0.0000       3.064074        83.3777 
 429   0.0000       3.081996        83.8654 
 430   0.0000       3.094132        84.1956 
 431   0.0000       3.117780        84.8391 
 432   0.0000       3.128496        85.1307 
 433   0.0000       3.139706        85.4357 
 434   0.0000       3.148279        85.6690 
 435   0.0000       3.188494        86.7633 
 436   0.0000       3.205577        87.2282 
 437   0.0000       3.219154        87.5976 
 438   0.0000       3.239187        88.1428 
 439   0.0000       3.241803        88.2139 
 440   0.0000       3.261463        88.7489 
 441   0.0000       3.279111        89.2291 
 442   0.0000       3.309330        90.0514 
 443   0.0000       3.326827        90.5276 
 444   0.0000       3.338076        90.8337 
 445   0.0000       3.351145        91.1893 
 446   0.0000       3.376462        91.8782 
 447   0.0000       3.389638        92.2367 
 448   0.0000       3.407476        92.7221 
 449   0.0000       3.414940        92.9252 
 450   0.0000       3.426895        93.2506 
 451   0.0000       3.436764        93.5191 
 452   0.0000       3.459962        94.1504 
 453   0.0000       3.482443        94.7621 
 454   0.0000       3.494903        95.1011 
 455   0.0000       3.508070        95.4595 
 456   0.0000       3.524799        95.9147 
 457   0.0000       3.531172        96.0881 
 458   0.0000       3.547181        96.5237 
 459   0.0000       3.555568        96.7519 
 460   0.0000       3.571738        97.1919 
 461   0.0000       3.572341        97.2083 
 462   0.0000       3.597348        97.8888 
 463   0.0000       3.599031        97.9346 
 464   0.0000       3.624522        98.6283 
 465   0.0000       3.644631        99.1754 
 466   0.0000       3.652746        99.3963 
 467   0.0000       3.663847        99.6984 
 468   0.0000       3.682760       100.2130 
 469   0.0000       3.695599       100.5624 
 470   0.0000       3.703891       100.7880 
 471   0.0000       3.715501       101.1039 
 472   0.0000       3.727569       101.4323 
 473   0.0000       3.740561       101.7858 
 474   0.0000       3.743632       101.8694 
 475   0.0000       3.763723       102.4161 
 476   0.0000       3.779180       102.8367 
 477   0.0000       3.781136       102.8899 
 478   0.0000       3.796901       103.3189 
 479   0.0000       3.818196       103.8984 
 480   0.0000       3.827374       104.1482 
 481   0.0000       3.831445       104.2589 
 482   0.0000       3.840243       104.4983 
 483   0.0000       3.861055       105.0647 
 484   0.0000       3.879002       105.5530 
 485   0.0000       3.886728       105.7632 
 486   0.0000       3.902668       106.1970 
 487   0.0000       3.924624       106.7945 
 488   0.0000       3.928618       106.9031 
 489   0.0000       3.940928       107.2381 
 490   0.0000       3.955706       107.6402 
 491   0.0000       3.959942       107.7555 
 492   0.0000       3.976464       108.2051 
 493   0.0000       3.977344       108.2290 
 494   0.0000       3.992670       108.6461 
 495   0.0000       3.998793       108.8127 
 496   0.0000       4.021849       109.4401 
 497   0.0000       4.024276       109.5061 
 498   0.0000       4.058461       110.4363 
 499   0.0000       4.067651       110.6864 
 500   0.0000       4.088201       111.2456 
 501   0.0000       4.094599       111.4197 
 502   0.0000       4.098537       111.5269 
 503   0.0000       4.107434       111.7690 
 504   0.0000       4.127945       112.3271 
 505   0.0000       4.132378       112.4477 
 506   0.0000       4.141957       112.7084 
 507   0.0000       4.148713       112.8922 
 508   0.0000       4.165873       113.3592 
 509   0.0000       4.183064       113.8270 
 510   0.0000       4.187100       113.9368 
 511   0.0000       4.202087       114.3446 
 512   0.0000       4.226870       115.0190 
 513   0.0000       4.234240       115.2195 
 514   0.0000       4.243286       115.4657 
 515   0.0000       4.252897       115.7272 
 516   0.0000       4.260359       115.9303 
 517   0.0000       4.269904       116.1900 
 518   0.0000       4.277418       116.3945 
 519   0.0000       4.299670       117.0000 
 520   0.0000       4.304314       117.1263 
 521   0.0000       4.324608       117.6786 
 522   0.0000       4.345172       118.2381 
 523   0.0000       4.364629       118.7676 
 524   0.0000       4.378493       119.1448 
 525   0.0000       4.383850       119.2906 
 526   0.0000       4.398227       119.6818 
 527   0.0000       4.422809       120.3508 
 528   0.0000       4.425360       120.4202 
 529   0.0000       4.430131       120.5500 
 530   0.0000       4.459478       121.3486 
 531   0.0000       4.465812       121.5209 
 532   0.0000       4.472950       121.7151 
 533   0.0000       4.495970       122.3416 
 534   0.0000       4.516031       122.8875 
 535   0.0000       4.534486       123.3896 
 536   0.0000       4.543727       123.6411 
 537   0.0000       4.552660       123.8842 
 538   0.0000       4.565831       124.2426 
 539   0.0000       4.572440       124.4224 
 540   0.0000       4.608273       125.3975 
 541   0.0000       4.617160       125.6393 
 542   0.0000       4.625631       125.8698 
 543   0.0000       4.649061       126.5074 
 544   0.0000       4.663614       126.9034 
 545   0.0000       4.666879       126.9922 
 546   0.0000       4.678185       127.2999 
 547   0.0000       4.688700       127.5860 
 548   0.0000       4.701571       127.9362 
 549   0.0000       4.720487       128.4510 
 550   0.0000       4.747662       129.1904 
 551   0.0000       4.750100       129.2568 
 552   0.0000       4.773599       129.8962 
 553   0.0000       4.776749       129.9820 
 554   0.0000       4.780305       130.0787 
 555   0.0000       4.795517       130.4927 
 556   0.0000       4.823559       131.2557 
 557   0.0000       4.837277       131.6290 
 558   0.0000       4.841766       131.7512 
 559   0.0000       4.849188       131.9531 
 560   0.0000       4.856246       132.1452 
 561   0.0000       4.880360       132.8013 
 562   0.0000       4.901005       133.3631 
 563   0.0000       4.903356       133.4271 
 564   0.0000       4.920692       133.8988 
 565   0.0000       4.924429       134.0005 
 566   0.0000       4.940153       134.4284 
 567   0.0000       4.974110       135.3524 
 568   0.0000       4.996617       135.9649 
 569   0.0000       5.009419       136.3132 
 570   0.0000       5.024085       136.7123 
 571   0.0000       5.040012       137.1457 
 572   0.0000       5.050319       137.4262 
 573   0.0000       5.076138       138.1287 
 574   0.0000       5.082936       138.3137 
 575   0.0000       5.100018       138.7785 
 576   0.0000       5.110474       139.0631 
 577   0.0000       5.131281       139.6293 
 578   0.0000       5.145450       140.0148 
 579   0.0000       5.165561       140.5621 
 580   0.0000       5.171301       140.7183 
 581   0.0000       5.188129       141.1762 
 582   0.0000       5.214082       141.8824 
 583   0.0000       5.218591       142.0051 
 584   0.0000       5.228310       142.2695 
 585   0.0000       5.244265       142.7037 
 586   0.0000       5.253746       142.9617 
 587   0.0000       5.266006       143.2953 
 588   0.0000       5.283175       143.7625 
 589   0.0000       5.294989       144.0840 
 590   0.0000       5.306716       144.4031 
 591   0.0000       5.319407       144.7484 
 592   0.0000       5.326106       144.9307 
 593   0.0000       5.335704       145.1919 
 594   0.0000       5.351464       145.6207 
 595   0.0000       5.370517       146.1392 
 596   0.0000       5.397290       146.8677 
 597   0.0000       5.417165       147.4086 
 598   0.0000       5.438419       147.9869 
 599   0.0000       5.448876       148.2714 
 600   0.0000       5.457366       148.5025 
 601   0.0000       5.465438       148.7221 
 602   0.0000       5.507767       149.8740 
 603   0.0000       5.544297       150.8680 
 604   0.0000       5.558737       151.2609 
 605   0.0000       5.572045       151.6231 
 606   0.0000       5.598500       152.3429 
 607   0.0000       5.636859       153.3867 
 608   0.0000       5.689460       154.8181 
 609   0.0000       5.705795       155.2626 
 610   0.0000       5.755348       156.6110 
 611   0.0000       5.855596       159.3389 
 612   0.0000       5.863625       159.5574 
 613   0.0000       5.879048       159.9770 
 614   0.0000       5.925177       161.2323 
 615   0.0000       5.960359       162.1896 
 616   0.0000       5.970458       162.4644 
 617   0.0000       6.042411       164.4224 
 618   0.0000       6.063390       164.9932 
 619   0.0000       6.077603       165.3800 
 620   0.0000       6.109602       166.2507 
 621   0.0000       6.122938       166.6136 
 622   0.0000       6.187922       168.3819 
 623   0.0000       6.226522       169.4323 
 624   0.0000       6.280979       170.9141 
 625   0.0000       6.297657       171.3680 
 626   0.0000       6.376163       173.5042 
 627   0.0000       6.410696       174.4439 
 628   0.0000       6.450762       175.5342 
 629   0.0000       6.488628       176.5645 
 630   0.0000       6.518064       177.3655 
 631   0.0000       6.537139       177.8846 
 632   0.0000       6.584183       179.1647 
 633   0.0000       6.585933       179.2123 
 634   0.0000       6.603072       179.6787 
 635   0.0000       6.653710       181.0567 
 636   0.0000       6.675352       181.6456 
 637   0.0000       6.684268       181.8882 
 638   0.0000       6.710903       182.6130 
 639   0.0000       6.716570       182.7672 
 640   0.0000       6.741049       183.4333 
 641   0.0000       6.777484       184.4247 
 642   0.0000       6.826399       185.7558 
 643   0.0000       6.858660       186.6336 
 644   0.0000       6.868216       186.8937 
 645   0.0000       6.878666       187.1780 
 646   0.0000       6.933192       188.6617 
 647   0.0000       6.960592       189.4073 
 648   0.0000       6.985255       190.0785 
 649   0.0000       7.008278       190.7050 
 650   0.0000       7.034113       191.4080 
 651   0.0000       7.045098       191.7069 
 652   0.0000       7.061185       192.1446 
 653   0.0000       7.083276       192.7457 
 654   0.0000       7.090447       192.9409 
 655   0.0000       7.108835       193.4412 
 656   0.0000       7.119265       193.7251 
 657   0.0000       7.141408       194.3276 
 658   0.0000       7.178719       195.3429 
 659   0.0000       7.197897       195.8647 
 660   0.0000       7.225722       196.6219 
 661   0.0000       7.237235       196.9352 
 662   0.0000       7.293278       198.4602 
 663   0.0000       7.316425       199.0900 
 664   0.0000       7.367019       200.4668 
 665   0.0000       7.375587       200.6999 
 666   0.0000       7.468773       203.2356 
 667   0.0000       7.501733       204.1325 
 668   0.0000       7.572041       206.0457 
 669   0.0000       7.610355       207.0883 
 670   0.0000       7.661653       208.4842 
 671   0.0000       7.707982       209.7448 
 672   0.0000       7.718521       210.0316 
 673   0.0000       7.752632       210.9598 
 674   0.0000       7.853162       213.6954 
 675   0.0000       7.907151       215.1645 
 676   0.0000       7.950471       216.3433 
 677   0.0000       8.314382       226.2458 
 678   0.0000       8.347810       227.1555 
 679   0.0000       8.504341       231.4149 
 680   0.0000       8.611538       234.3319 
 681   0.0000      15.543741       422.9667 
 682   0.0000      15.674654       426.5290 
 683   0.0000      16.237744       441.8515 
 684   0.0000      16.749395       455.7742 
 685   0.0000      17.071566       464.5409 
 686   0.0000      17.136576       466.3099 
 687   0.0000      17.736348       482.6306 
 688   0.0000      18.973498       516.2951 
 689   0.0000      19.424333       528.5630 

                    ********************************
                    * MULLIKEN POPULATION ANALYSIS *
                    ********************************

-----------------------
MULLIKEN ATOMIC CHARGES
-----------------------
   0 O :   -0.447501
   1 H :    0.139669
   2 H :    0.220442
   3 C :   -0.963177
   4 C :   -0.305470
   5 H :    0.360048
   6 H :    0.301075
   7 H :    0.342785
   8 C :    1.633748
   9 C :   -1.168432
  10 C :   -0.488577
  11 O :   -0.525016
  12 H :    0.266863
  13 H :    0.287442
  14 H :    0.271901
  15 O :   -0.443001
  16 H :    0.287736
  17 O :   -0.508951
  18 H :    0.453636
  19 H :    0.174589
  20 H :    0.110193
Sum of atomic charges:    0.0000000

--------------------------------
MULLIKEN REDUCED ORBITAL CHARGES
--------------------------------
  0 O s       :     3.910904  s :     3.910904
      pz      :     1.557529  p :     4.523040
      px      :     1.520881
      py      :     1.444629
      dz2     :     0.002552  d :     0.013532
      dxz     :     0.005136
      dyz     :     0.002532
      dx2y2   :     0.002809
      dxy     :     0.000503
      f0      :    -0.000121  f :     0.000025
      f+1     :    -0.000030
      f-1     :     0.000049
      f+2     :     0.000145
      f-2     :    -0.000076
      f+3     :     0.000036
      f-3     :     0.000021
  1 H s       :     0.725751  s :     0.725751
      pz      :     0.039183  p :     0.116967
      px      :     0.046366
      py      :     0.031418
      dz2     :     0.003527  d :     0.017613
      dxz     :     0.002584
      dyz     :     0.002688
      dx2y2   :     0.005362
      dxy     :     0.003451
  2 H s       :     0.632772  s :     0.632772
      pz      :     0.037389  p :     0.110230
      px      :     0.022774
      py      :     0.050066
      dz2     :     0.009317  d :     0.036556
      dxz     :     0.003595
      dyz     :     0.003047
      dx2y2   :     0.013843
      dxy     :     0.006754
  3 C s       :     3.712934  s :     3.712934
      pz      :     1.046211  p :     3.262098
      px      :     1.045133
      py      :     1.170754
      dz2     :     0.028134  d :    -0.020152
      dxz     :    -0.030775
      dyz     :    -0.008580
      dx2y2   :    -0.015005
      dxy     :     0.006075
      f0      :     0.001927  f :     0.008297
      f+1     :     0.000774
      f-1     :     0.000694
      f+2     :     0.001936
      f-2     :    -0.000735
      f+3     :     0.001773
      f-3     :     0.001927
  4 C s       :     3.432227  s :     3.432227
      pz      :     0.916841  p :     2.863038
      px      :     0.927506
      py      :     1.018691
      dz2     :     0.024911  d :     0.019297
      dxz     :     0.002562
      dyz     :    -0.017871
      dx2y2   :     0.010521
      dxy     :    -0.000826
      f0      :    -0.000831  f :    -0.009092
      f+1     :    -0.002263
      f-1     :     0.000079
      f+2     :    -0.005162
      f-2     :    -0.001291
      f+3     :    -0.002435
      f-3     :     0.002811
  5 H s       :     0.609005  s :     0.609005
      pz      :     0.008504  p :     0.024583
      px      :     0.004426
      py      :     0.011653
      dz2     :     0.002221  d :     0.006363
      dxz     :    -0.000789
      dyz     :     0.000956
      dx2y2   :     0.002651
      dxy     :     0.001325
  6 H s       :     0.653956  s :     0.653956
      pz      :     0.019448  p :     0.040563
      px      :     0.013839
      py      :     0.007276
      dz2     :    -0.000016  d :     0.004407
      dxz     :     0.000480
      dyz     :     0.002670
      dx2y2   :    -0.001371
      dxy     :     0.002643
  7 H s       :     0.650692  s :     0.650692
      pz      :     0.013442  p :     0.001636
      px      :     0.014558
      py      :    -0.026364
      dz2     :    -0.000289  d :     0.004887
      dxz     :     0.000663
      dyz     :     0.002213
      dx2y2   :    -0.001018
      dxy     :     0.003319
  8 C s       :     2.883521  s :     2.883521
      pz      :     0.536824  p :     1.526989
      px      :     0.553751
      py      :     0.436414
      dz2     :    -0.040825  d :    -0.019904
      dxz     :     0.040122
      dyz     :    -0.013090
      dx2y2   :    -0.000209
      dxy     :    -0.005901
      f0      :    -0.003837  f :    -0.024354
      f+1     :    -0.005748
      f-1     :    -0.005324
      f+2     :    -0.006577
      f-2     :    -0.003102
      f+3     :    -0.000263
      f-3     :     0.000497
  9 C s       :     3.600391  s :     3.600391
      pz      :     1.017735  p :     3.424505
      px      :     1.180741
      py      :     1.226029
      dz2     :     0.023880  d :     0.127346
      dxz     :     0.027566
      dyz     :     0.015908
      dx2y2   :     0.008506
      dxy     :     0.051487
      f0      :     0.003290  f :     0.016190
      f+1     :     0.002861
      f-1     :     0.003615
      f+2     :     0.002375
      f-2     :     0.000291
      f+3     :     0.002335
      f-3     :     0.001423
 10 C s       :     3.489562  s :     3.489562
      pz      :     0.770251  p :     2.799107
      px      :     1.005112
      py      :     1.023744
      dz2     :     0.035610  d :     0.175946
      dxz     :     0.036209
      dyz     :     0.060206
      dx2y2   :     0.009186
      dxy     :     0.034734
      f0      :     0.004869  f :     0.023962
      f+1     :     0.002340
      f-1     :     0.007573
      f+2     :     0.003281
      f-2     :     0.002993
      f+3     :     0.002835
      f-3     :     0.000071
 11 O s       :     3.984418  s :     3.984418
      pz      :     1.563482  p :     4.455730
      px      :     1.351530
      py      :     1.540718
      dz2     :     0.008168  d :     0.071495
      dxz     :     0.012446
      dyz     :     0.012101
      dx2y2   :     0.020803
      dxy     :     0.017977
      f0      :     0.001660  f :     0.013372
      f+1     :     0.001152
      f-1     :     0.001234
      f+2     :     0.001307
      f-2     :     0.003543
      f+3     :     0.001951
      f-3     :     0.002526
 12 H s       :     0.673776  s :     0.673776
      pz      :     0.020139  p :     0.051577
      px      :     0.013874
      py      :     0.017564
      dz2     :     0.005580  d :     0.007783
      dxz     :    -0.000738
      dyz     :     0.000896
      dx2y2   :     0.000748
      dxy     :     0.001297
 13 H s       :     0.661938  s :     0.661938
      pz      :     0.020337  p :     0.043763
      px      :     0.016486
      py      :     0.006940
      dz2     :     0.001671  d :     0.006857
      dxz     :     0.002394
      dyz     :     0.000688
      dx2y2   :     0.001026
      dxy     :     0.001078
 14 H s       :     0.680596  s :     0.680596
      pz      :     0.012371  p :     0.040144
      px      :     0.012695
      py      :     0.015079
      dz2     :    -0.000903  d :     0.007359
      dxz     :     0.003264
      dyz     :     0.002825
      dx2y2   :     0.002720
      dxy     :    -0.000547
 15 O s       :     4.018891  s :     4.018891
      pz      :     1.315910  p :     4.365528
      px      :     1.174980
      py      :     1.874638
      dz2     :     0.007492  d :     0.050051
      dxz     :     0.024264
      dyz     :     0.007341
      dx2y2   :     0.004091
      dxy     :     0.006863
      f0      :     0.001303  f :     0.008531
      f+1     :     0.002188
      f-1     :     0.000645
      f+2     :     0.001215
      f-2     :     0.001593
      f+3     :     0.000886
      f-3     :     0.000702
 16 H s       :     0.595413  s :     0.595413
      pz      :    -0.002980  p :     0.079430
      px      :     0.034327
      py      :     0.048083
      dz2     :     0.013042  d :     0.037421
      dxz     :     0.002625
      dyz     :     0.008476
      dx2y2   :     0.003622
      dxy     :     0.009655
 17 O s       :     3.922760  s :     3.922760
      pz      :     1.321027  p :     4.543265
      px      :     1.499794
      py      :     1.722445
      dz2     :     0.009449  d :     0.039185
      dxz     :     0.013488
      dyz     :     0.007829
      dx2y2   :     0.003686
      dxy     :     0.004733
      f0      :     0.000762  f :     0.003741
      f+1     :     0.000391
      f-1     :     0.000737
      f+2     :     0.000737
      f-2     :     0.000813
      f+3     :     0.000051
      f-3     :     0.000250
 18 H s       :     0.504744  s :     0.504744
      pz      :    -0.000005  p :     0.037736
      px      :     0.015025
      py      :     0.022716
      dz2     :    -0.001636  d :     0.003884
      dxz     :     0.000421
      dyz     :     0.000128
      dx2y2   :    -0.000873
[...]
     12      -0.000344   0.006760   0.000363   0.009633  -0.001454  -0.000117
     13       0.002349  -0.012673  -0.000514  -0.083180   0.013742  -0.000343
     14      -0.000098  -0.003648  -0.000110   0.011613  -0.001996  -0.000034
     15      -0.013862   0.414130   0.024024  -0.003356   0.540754  -0.000717
     16       0.010129  -0.284185  -0.016509   0.002991  -0.349553   0.000051
     17       0.011489  -0.346286  -0.020044   0.002702  -0.457011   0.001115
     18       0.004558  -0.094110  -0.005555   0.028439   0.063129  -0.000248
     19      -0.031744   0.750359   0.044989  -0.237475  -0.579445  -0.002283
     20       0.003035  -0.084872  -0.004867   0.028276   0.075052  -0.000025
     21       0.004158  -0.032014  -0.002355  -0.150397   0.021912   0.001000
     22      -0.029687   0.192115   0.012439   0.950183  -0.142926  -0.000808
     23       0.003756  -0.016796  -0.000576  -0.089894   0.014298  -0.000602
     24      -0.000803  -0.000026   0.001325  -0.000675   0.000311   0.000610
     25      -0.001534  -0.000616  -0.000541  -0.000357   0.000122   0.001474
     26       0.000896   0.000026  -0.000556   0.001202  -0.000519   0.000155
     27      -0.009587  -0.004542   0.078526  -0.000119   0.000073   0.000187
     28      -0.074833  -0.000705  -0.031383  -0.001851   0.000266  -0.000169
     29       0.024331   0.002946  -0.035661   0.001052  -0.000107  -0.000104
     30      -0.038205  -0.003675   0.010935  -0.000280   0.001064  -0.000358
     31       0.002256  -0.001360  -0.000524   0.000834   0.000746  -0.000548
     32       0.027382   0.001979  -0.008183  -0.000040  -0.000372  -0.001396
     33       0.000029  -0.000094   0.000004   0.000019  -0.000018  -0.001207
     34       0.000553   0.000080  -0.000109  -0.000084  -0.000032  -0.000377
     35       0.000051   0.000125  -0.000244  -0.000083   0.000021   0.000741
     36       0.015612   0.033152  -0.584371   0.004008  -0.000092  -0.000855
     37      -0.021800  -0.013980   0.237068  -0.002183   0.000028   0.001365
     38      -0.013188  -0.031774   0.558356  -0.005200  -0.000018   0.001722
     39      -0.295632  -0.000298  -0.187413  -0.009897   0.001069   0.000440
     40       0.497487  -0.001281   0.346462   0.015846  -0.001942   0.000304
     41      -0.215325   0.000497  -0.156965  -0.008429   0.001214   0.000619
     42       0.396239   0.021999  -0.175326   0.007816  -0.001359  -0.003158
     43       0.421696   0.024826  -0.210507   0.008695  -0.001476  -0.002768
     44      -0.067632  -0.003359   0.028863  -0.001166  -0.000138  -0.000159
     45       0.000343   0.000097   0.000032   0.000075  -0.000010   0.049158
     46      -0.000333  -0.000041   0.000354   0.000127  -0.000037  -0.009547
     47       0.000156   0.000094   0.000041  -0.000081   0.000011   0.036128
     48      -0.002358  -0.002034   0.002177   0.000146   0.000120  -0.751509
     49       0.001089   0.000345   0.000013   0.000047   0.000081   0.143541
     50      -0.002596  -0.001426   0.002995   0.000205  -0.000089  -0.572087
     51       0.000775   0.000034  -0.000279   0.000055  -0.000028   0.000283
     52      -0.000151   0.000060   0.000078  -0.000016  -0.000084   0.000599
     53      -0.000316  -0.000109   0.000111   0.000092   0.000040   0.000921
     54       0.353087   0.021956  -0.103556   0.003576  -0.002933  -0.003855
     55      -0.141183  -0.009341   0.041977  -0.001993   0.001193   0.002885
     56      -0.312922  -0.019707   0.089972  -0.002302   0.002578   0.002957
     57       0.099505   0.025271  -0.029257  -0.004560  -0.010610   0.003341
     58       0.121674   0.027102  -0.035676  -0.004812  -0.011636   0.001600
     59      -0.015340  -0.005335   0.003776   0.001220   0.002392   0.002947
     60      -0.007052  -0.001163   0.002103  -0.000293   0.001426   0.007544
     61       0.002217  -0.001396  -0.000572   0.000556   0.001700  -0.004090
     62       0.001098  -0.000255   0.000618  -0.000596   0.000968  -0.007196
                 60         61         62    
      0       0.042110  -0.001080   0.028557
      1       0.015890   0.000276   0.051118
      2      -0.034197   0.001613   0.025302
      3       0.063997  -0.008122  -0.352550
      4       0.113575  -0.016975  -0.782502
      5       0.054820  -0.010066  -0.490773
      6      -0.720578   0.026130  -0.096629
      7      -0.362302   0.011896  -0.028424
      8       0.492745  -0.015388   0.089125
      9       0.000022   0.000247  -0.000008
     10      -0.000094   0.000192  -0.000014
     11      -0.000128  -0.000516  -0.000009
     12      -0.000044  -0.000414   0.000007
     13      -0.000177  -0.000148  -0.000020
     14       0.000010   0.000550  -0.000014
     15      -0.000938   0.000350  -0.000126
     16       0.000775  -0.000208   0.000110
     17       0.000711   0.000076   0.000079
     18       0.000579   0.000393   0.000100
     19       0.001459   0.001015   0.000192
     20      -0.000141   0.001311  -0.000054
     21      -0.000353  -0.000383  -0.000064
     22       0.001182  -0.000245   0.000198
     23       0.000012  -0.000950   0.000044
     24      -0.000099  -0.000113   0.000015
     25      -0.000238   0.000226  -0.000053
     26       0.000067   0.000338  -0.000012
     27      -0.000033   0.000148  -0.000016
     28       0.000068  -0.000146   0.000023
     29       0.000010  -0.000059   0.000003
     30       0.000400   0.001506   0.000029
     31       0.000632  -0.001093   0.000117
     32       0.001768  -0.001509   0.000336
     33      -0.000287   0.000069   0.000002
     34       0.000139  -0.000066   0.000019
     35       0.000177  -0.000003  -0.000039
     36       0.000097  -0.000206   0.000059
     37      -0.000247  -0.000023  -0.000029
     38      -0.000138  -0.000671   0.000008
     39      -0.000857   0.000420  -0.000130
     40       0.000900  -0.000238   0.000121
     41      -0.000997   0.001096  -0.000185
     42       0.000478  -0.000032   0.000017
     43       0.000306   0.000270  -0.000016
     44       0.000206   0.000033   0.000027
     45       0.014372   0.000071  -0.000526
     46      -0.002718  -0.000023   0.000110
     47       0.010522   0.000018  -0.000417
     48      -0.221837  -0.000268   0.007646
     49       0.042107   0.000478  -0.000355
     50      -0.175988  -0.000804   0.007397
     51       0.000840   0.038478  -0.000816
     52      -0.001138  -0.030170   0.000362
     53      -0.001865  -0.037979   0.000495
     54       0.001711  -0.008608   0.000382
     55      -0.001849   0.002452  -0.000322
     56      -0.004109   0.009296  -0.000772
     57      -0.006136   0.004327  -0.001031
     58      -0.004875   0.002969  -0.000775
     59      -0.003588   0.002201  -0.000682
     60      -0.024356  -0.626185   0.010017
     61       0.013482   0.486034  -0.007993
     62       0.018445   0.605060  -0.010033


-----------
IR SPECTRUM
-----------

 Mode   freq       eps      Int      T**2         TX        TY        TZ
       cm**-1   L/(mol*cm) km/mol    a.u.
----------------------------------------------------------------------------
  6:     54.65   0.001406    7.10  0.008027  (-0.084769  0.026188 -0.012469)
  7:    108.84   0.000016    0.08  0.000044  ( 0.005769  0.002677  0.002005)
  8:    124.76   0.000173    0.87  0.000432  ( 0.003784 -0.000842 -0.020414)
  9:    143.61   0.000348    1.76  0.000757  ( 0.011795  0.013336 -0.020980)
 10:    198.92   0.000970    4.90  0.001522  (-0.008265  0.031034 -0.022159)
 11:    207.24   0.000393    1.98  0.000591  ( 0.008533 -0.011564  0.019616)
 12:    232.49   0.002651   13.40  0.003558  ( 0.008262 -0.032913  0.049057)
 13:    243.20   0.022343  112.91  0.028669  (-0.153470  0.017789 -0.069281)
 14:    268.36   0.000370    1.87  0.000431  ( 0.014898 -0.013199 -0.005863)
 15:    288.55   0.000850    4.30  0.000920  (-0.022005  0.001017 -0.020839)
 16:    315.45   0.000796    4.02  0.000788  ( 0.004631 -0.005944  0.027035)
 17:    327.88   0.000979    4.95  0.000932  ( 0.024011  0.009940 -0.016028)
 18:    369.36   0.000853    4.31  0.000721  ( 0.020344 -0.014459  0.009907)
 19:    383.92   0.002097   10.60  0.001704  ( 0.006494 -0.020925  0.034992)
 20:    441.35   0.000236    1.19  0.000167  (-0.010732 -0.003626  0.006202)
 21:    461.47   0.020699  104.61  0.013998  ( 0.065828  0.086614 -0.046501)
 22:    537.64   0.000686    3.47  0.000398  (-0.002902  0.019739 -0.000218)
 23:    581.50   0.000421    2.13  0.000226  ( 0.010491  0.004324 -0.009867)
 24:    656.76   0.037105  187.51  0.017631  ( 0.087796 -0.078041  0.061904)
 25:    710.38   0.002446   12.36  0.001074  ( 0.023165  0.001975  0.023105)
 26:    777.38   0.002892   14.61  0.001161  (-0.010067 -0.032525 -0.001302)
 27:    809.38   0.019914  100.64  0.007678  (-0.053745 -0.068900  0.006486)
 28:    891.85   0.001511    7.64  0.000529  (-0.005716 -0.022265  0.000549)
 29:    944.58   0.000410    2.07  0.000135  ( 0.000336 -0.006366  0.009739)
 30:    987.46   0.006836   34.55  0.002161  ( 0.032415  0.005065  0.032926)
 31:    991.20   0.004125   20.85  0.001299  (-0.019438  0.000632 -0.030340)
 32:   1037.36   0.000744    3.76  0.000224  ( 0.006394  0.006756 -0.011722)
 33:   1060.52   0.000734    3.71  0.000216  ( 0.012547 -0.004110 -0.006445)
 34:   1064.27   0.001146    5.79  0.000336  (-0.015206 -0.006786 -0.007667)
 35:   1095.98   0.021862  110.48  0.006225  ( 0.053287  0.011002  0.057135)
 36:   1168.55   0.006626   33.49  0.001770  ( 0.040173  0.012470 -0.000409)
 37:   1177.44   0.001790    9.04  0.000474  ( 0.021007 -0.000475  0.005729)
 38:   1251.12   0.005863   29.63  0.001462  ( 0.001226  0.021386 -0.031678)
 39:   1327.89   0.001888    9.54  0.000444  ( 0.004996  0.010518  0.017551)
 40:   1333.07   0.000740    3.74  0.000173  ( 0.000053 -0.007652  0.010705)
 41:   1365.78   0.004132   20.88  0.000944  (-0.028889  0.005156 -0.009109)
 42:   1411.20   0.001600    8.08  0.000354  ( 0.010523  0.007015  0.013921)
 43:   1438.43   0.007294   36.86  0.001582  ( 0.026889  0.005066  0.028873)
 44:   1466.78   0.003739   18.89  0.000795  (-0.024905 -0.011307  0.006877)
 45:   1491.81   0.000469    2.37  0.000098  (-0.002707  0.008572 -0.004164)
 46:   1507.76   0.000817    4.13  0.000169  ( 0.005199  0.005994 -0.010306)
 47:   1523.65   0.002751   13.90  0.000563  ( 0.000365 -0.020352  0.012210)
 48:   1531.25   0.008720   44.07  0.001777  ( 0.028981 -0.008788 -0.029325)
 49:   1666.64   0.009167   46.33  0.001716  (-0.006578 -0.016106 -0.037601)
 50:   1738.45   0.001043    5.27  0.000187  ( 0.005005  0.002660 -0.012456)
 51:   3061.72   0.005026   25.40  0.000512  (-0.013390 -0.017406 -0.005477)
 52:   3074.24   0.004266   21.56  0.000433  ( 0.013943  0.009177  0.012428)
 53:   3147.85   0.001174    5.94  0.000116  ( 0.004791 -0.009482 -0.001889)
 54:   3150.51   0.002435   12.31  0.000241  (-0.006737 -0.011557  0.007891)
 55:   3161.46   0.001166    5.89  0.000115  (-0.004446 -0.008110  0.005441)
 56:   3163.93   0.002320   11.72  0.000229  ( 0.012285 -0.006272 -0.006211)
 57:   3185.35   0.000317    1.60  0.000031  ( 0.003809 -0.004072  0.000132)
 58:   3245.40   0.001648    8.33  0.000158  (-0.007911  0.008704  0.004485)
 59:   3509.97   0.073355  370.71  0.006522  (-0.060859  0.018277 -0.049840)
 60:   3617.23   0.122175  617.42  0.010540  (-0.098595 -0.028485  0.002801)
 61:   3825.78   0.010594   53.54  0.000864  (-0.019652  0.015366  0.015550)
 62:   3914.31   0.017369   87.77  0.001385  (-0.026157 -0.025307 -0.007749)

* The epsilon (eps) is given for a Dirac delta lineshape.
** The dipole moment derivative (T) already includes vibrational overlap.

The first frequency considered to be a vibration is 6
The total number of vibrations considered is 57


--------------------------
THERMOCHEMISTRY AT 298.15K
--------------------------

Temperature         ... 298.15 K
Pressure            ... 1.00 atm
Total Mass          ... 136.15 AMU

Throughout the following assumptions are being made:
  (1) The electronic state is orbitally nondegenerate
  (2) There are no thermally accessible electronically excited states
  (3) Hindered rotations indicated by low frequency modes are not
      treated as such but are treated as vibrations and this may
      cause some error
  (4) All equations used are the standard statistical mechanics
      equations for an ideal gas
  (5) All vibrations are strictly harmonic

freq.      54.65  E(vib)   ...       0.52 
freq.     108.84  E(vib)   ...       0.45 
freq.     124.76  E(vib)   ...       0.43 
freq.     143.61  E(vib)   ...       0.41 
freq.     198.92  E(vib)   ...       0.35 
freq.     207.24  E(vib)   ...       0.34 
freq.     232.49  E(vib)   ...       0.32 
freq.     243.20  E(vib)   ...       0.31 
freq.     268.36  E(vib)   ...       0.29 
freq.     288.55  E(vib)   ...       0.27 
freq.     315.45  E(vib)   ...       0.25 
freq.     327.88  E(vib)   ...       0.24 
freq.     369.36  E(vib)   ...       0.21 
freq.     383.92  E(vib)   ...       0.20 
freq.     441.35  E(vib)   ...       0.17 
freq.     461.47  E(vib)   ...       0.16 
freq.     537.64  E(vib)   ...       0.12 
freq.     581.50  E(vib)   ...       0.11 
freq.     656.76  E(vib)   ...       0.08 
freq.     710.38  E(vib)   ...       0.07 
freq.     777.38  E(vib)   ...       0.05 
freq.     809.38  E(vib)   ...       0.05 
freq.     891.85  E(vib)   ...       0.03 
freq.     944.58  E(vib)   ...       0.03 
freq.     987.46  E(vib)   ...       0.02 
freq.     991.20  E(vib)   ...       0.02 
freq.    1037.36  E(vib)   ...       0.02 
freq.    1060.52  E(vib)   ...       0.02 
freq.    1064.27  E(vib)   ...       0.02 
freq.    1095.98  E(vib)   ...       0.02 
freq.    1168.55  E(vib)   ...       0.01 
freq.    1177.44  E(vib)   ...       0.01 
freq.    1251.12  E(vib)   ...       0.01 
freq.    1327.89  E(vib)   ...       0.01 
freq.    1333.07  E(vib)   ...       0.01 
freq.    1365.78  E(vib)   ...       0.01 
freq.    1411.20  E(vib)   ...       0.00 
freq.    1438.43  E(vib)   ...       0.00 
freq.    1466.78  E(vib)   ...       0.00 
freq.    1491.81  E(vib)   ...       0.00 
freq.    1507.76  E(vib)   ...       0.00 
freq.    1523.65  E(vib)   ...       0.00 
freq.    1531.25  E(vib)   ...       0.00 
freq.    1666.64  E(vib)   ...       0.00 
freq.    1738.45  E(vib)   ...       0.00 
freq.    3061.72  E(vib)   ...       0.00 
freq.    3074.24  E(vib)   ...       0.00 
freq.    3147.85  E(vib)   ...       0.00 
freq.    3150.51  E(vib)   ...       0.00 
freq.    3161.46  E(vib)   ...       0.00 
freq.    3163.93  E(vib)   ...       0.00 
freq.    3185.35  E(vib)   ...       0.00 
freq.    3245.40  E(vib)   ...       0.00 
freq.    3509.97  E(vib)   ...       0.00 
freq.    3617.23  E(vib)   ...       0.00 
freq.    3825.78  E(vib)   ...       0.00 
freq.    3914.31  E(vib)   ...       0.00 

------------
INNER ENERGY
------------

The inner energy is: U= E(el) + E(ZPE) + E(vib) + E(rot) + E(trans)
    E(el)   - is the total energy from the electronic structure calculation
              = E(kin-el) + E(nuc-el) + E(el-el) + E(nuc-nuc)
    E(ZPE)  - the the zero temperature vibrational energy from the frequency calculation
    E(vib)  - the the finite temperature correction to E(ZPE) due to population
              of excited vibrational states
    E(rot)  - is the rotational thermal energy
    E(trans)- is the translational thermal energy

Summary of contributions to the inner energy U:
Electronic energy                ...   -498.90096808 Eh
Zero point energy                ...      0.17718189 Eh     111.18 kcal/mol
Thermal vibrational correction   ...      0.00906379 Eh       5.69 kcal/mol
Thermal rotational correction    ...      0.00141627 Eh       0.89 kcal/mol
Thermal translational correction ...      0.00141627 Eh       0.89 kcal/mol
-----------------------------------------------------------------------
Total thermal energy                   -498.71188986 Eh


Summary of corrections to the electronic energy:
(perhaps to be used in another calculation)
Total thermal correction                  0.01189633 Eh       7.47 kcal/mol
Non-thermal (ZPE) correction              0.17718189 Eh     111.18 kcal/mol
-----------------------------------------------------------------------
Total correction                          0.18907822 Eh     118.65 kcal/mol


--------
ENTHALPY
--------

The enthalpy is H = U + kB*T
                kB is Boltzmann's constant
Total free energy                 ...   -498.71188986 Eh 
Thermal Enthalpy correction       ...      0.00094421 Eh       0.59 kcal/mol
-----------------------------------------------------------------------
Total Enthalpy                    ...   -498.71094565 Eh


Note: Only C1 symmetry has been detected, increase convergence thresholds 
      if your molecule has a higher symmetry. Symmetry factor of 1.0 is   
      used for the rotational entropy correction. 
 

Note: Rotational entropy computed according to Herzberg 
Infrared and Raman Spectra, Chapter V,1, Van Nostrand Reinhold, 1945 
Point Group:  C1, Symmetry Number:   1  
Rotational constants in cm-1:     0.066905     0.039170     0.030635 

Vibrational entropy computed according to the QRRHO of S. Grimme
Chem.Eur.J. 2012 18 9955


-------
ENTROPY
-------

The entropy contributions are T*S = T*(S(el)+S(vib)+S(rot)+S(trans))
     S(el)   - electronic entropy
     S(vib)  - vibrational entropy
     S(rot)  - rotational entropy
     S(trans)- translational entropy
The entropies will be listed as multiplied by the temperature to get
units of energy

Electronic entropy                ...      0.00000000 Eh      0.00 kcal/mol
Vibrational entropy               ...      0.01553511 Eh      9.75 kcal/mol
Rotational entropy                ...      0.01396260 Eh      8.76 kcal/mol
Translational entropy             ...      0.01930825 Eh     12.12 kcal/mol
-----------------------------------------------------------------------
Final entropy term                ...      0.04880596 Eh     30.63 kcal/mol

In case the symmetry of your molecule has not been determined correctly
or in case you have a reason to use a different symmetry number we print 
out the resulting rotational entropy values for sn=1,12 :
 --------------------------------------------------------
|  sn= 1 | S(rot)=       0.01396260 Eh      8.76 kcal/mol|
|  sn= 2 | S(rot)=       0.01330814 Eh      8.35 kcal/mol|
|  sn= 3 | S(rot)=       0.01292531 Eh      8.11 kcal/mol|
|  sn= 4 | S(rot)=       0.01265369 Eh      7.94 kcal/mol|
|  sn= 5 | S(rot)=       0.01244300 Eh      7.81 kcal/mol|
|  sn= 6 | S(rot)=       0.01227085 Eh      7.70 kcal/mol|
|  sn= 7 | S(rot)=       0.01212531 Eh      7.61 kcal/mol|
|  sn= 8 | S(rot)=       0.01199923 Eh      7.53 kcal/mol|
|  sn= 9 | S(rot)=       0.01188802 Eh      7.46 kcal/mol|
|  sn=10 | S(rot)=       0.01178854 Eh      7.40 kcal/mol|
|  sn=11 | S(rot)=       0.01169855 Eh      7.34 kcal/mol|
|  sn=12 | S(rot)=       0.01161640 Eh      7.29 kcal/mol|
 --------------------------------------------------------


-------------------
GIBBS FREE ENERGY
-------------------

The Gibbs free energy is G = H - T*S

Total enthalpy                    ...   -498.71094565 Eh 
Total entropy correction          ...     -0.04880596 Eh    -30.63 kcal/mol
-----------------------------------------------------------------------
Final Gibbs free energy         ...   -498.75975161 Eh

For completeness - the Gibbs free energy minus the electronic energy
G-E(el)                           ...      0.14121647 Eh     88.61 kcal/mol


Timings for individual modules:

Sum of individual times         ...     7339.284 sec (= 122.321 min)
GTO integral calculation        ...        1.876 sec (=   0.031 min)   0.0 %
SCF iterations                  ...      311.842 sec (=   5.197 min)   4.2 %
Analytical frequency calculation...     7025.567 sec (= 117.093 min)  95.7 %
                             ****ORCA TERMINATED NORMALLY****
TOTAL RUN TIME: 0 days 2 hours 2 minutes 20 seconds 390 msec
