
                                 *****************
                                 * O   R   C   A *
                                 *****************

                                            #,                                       
                                            ###                                      
                                            ####                                     
                                            #####                                    
                                            ######                                   
                                           ########,                                 
                                     ,,################,,,,,                         
                               ,,#################################,,                 
                          ,,##########################################,,             
                       ,#########################################, ''#####,          
                    ,#############################################,,   '####,        
                  ,##################################################,,,,####,       
                ,###########''''           ''''###############################       
              ,#####''   ,,,,##########,,,,          '''####'''          '####       
            ,##' ,,,,###########################,,,                        '##       
           ' ,,###''''                  '''############,,,                           
         ,,##''                                '''############,,,,        ,,,,,,###''
      ,#''                                            '''#######################'''  
     '                                                          ''''####''''         
             ,#######,   #######,   ,#######,      ##                                
            ,#'     '#,  ##    ##  ,#'     '#,    #''#        ######   ,####,        
            ##       ##  ##   ,#'  ##            #'  '#       #        #'  '#        
            ##       ##  #######   ##           ,######,      #####,   #    #        
            '#,     ,#'  ##    ##  '#,     ,#' ,#      #,         ##   #,  ,#        
             '#######'   ##     ##  '#######'  #'      '#     #####' # '####'        



                  #######################################################
                  #                        -***-                        #
                  #          Department of theory and spectroscopy      #
                  #    Directorship and core code : Frank Neese         #
                  #        Max Planck Institute fuer Kohlenforschung    #
                  #                Kaiser Wilhelm Platz 1               #
                  #                 D-45470 Muelheim/Ruhr               #
                  #                      Germany                        #
                  #                                                     #
                  #                  All rights reserved                #
                  #                        -***-                        #
                  #######################################################


                         Program Version 5.0.4 -  RELEASE  -


 With contributions from (in alphabetic order):
   Daniel Aravena         : Magnetic Suceptibility
   Michael Atanasov       : Ab Initio Ligand Field Theory (pilot matlab implementation)
   Alexander A. Auer      : GIAO ZORA, VPT2 properties, NMR spectrum
   Ute Becker             : Parallelization
   Giovanni Bistoni       : ED, misc. LED, open-shell LED, HFLD
   Martin Brehm           : Molecular dynamics
   Dmytro Bykov           : SCF Hessian
   Vijay G. Chilkuri      : MRCI spin determinant printing, contributions to CSF-ICE
   Dipayan Datta          : RHF DLPNO-CCSD density
   Achintya Kumar Dutta   : EOM-CC, STEOM-CC
   Dmitry Ganyushin       : Spin-Orbit,Spin-Spin,Magnetic field MRCI
   Miquel Garcia          : C-PCM and meta-GGA Hessian, CC/C-PCM, Gaussian charge scheme
   Yang Guo               : DLPNO-NEVPT2, F12-NEVPT2, CIM, IAO-localization
   Andreas Hansen         : Spin unrestricted coupled pair/coupled cluster methods
   Benjamin Helmich-Paris : MC-RPA, TRAH-SCF, COSX integrals
   Lee Huntington         : MR-EOM, pCC
   Robert Izsak           : Overlap fitted RIJCOSX, COSX-SCS-MP3, EOM
   Marcus Kettner         : VPT2
   Christian Kollmar      : KDIIS, OOCD, Brueckner-CCSD(T), CCSD density, CASPT2, CASPT2-K
   Simone Kossmann        : Meta GGA functionals, TD-DFT gradient, OOMP2, MP2 Hessian
   Martin Krupicka        : Initial AUTO-CI
   Lucas Lang             : DCDCAS
   Marvin Lechner         : AUTO-CI (C++ implementation), FIC-MRCC
   Dagmar Lenk            : GEPOL surface, SMD
   Dimitrios Liakos       : Extrapolation schemes; Compound Job, initial MDCI parallelization
   Dimitrios Manganas     : Further ROCIS development; embedding schemes
   Dimitrios Pantazis     : SARC Basis sets
   Anastasios Papadopoulos: AUTO-CI, single reference methods and gradients
   Taras Petrenko         : DFT Hessian,TD-DFT gradient, ASA, ECA, R-Raman, ABS, FL, XAS/XES, NRVS
   Peter Pinski           : DLPNO-MP2, DLPNO-MP2 Gradient
   Christoph Reimann      : Effective Core Potentials
   Marius Retegan         : Local ZFS, SOC
   Christoph Riplinger    : Optimizer, TS searches, QM/MM, DLPNO-CCSD(T), (RO)-DLPNO pert. Triples
   Tobias Risthaus        : Range-separated hybrids, TD-DFT gradient, RPA, STAB
   Michael Roemelt        : Original ROCIS implementation
   Masaaki Saitow         : Open-shell DLPNO-CCSD energy and density
   Barbara Sandhoefer     : DKH picture change effects
   Avijit Sen             : IP-ROCIS
   Kantharuban Sivalingam : CASSCF convergence, NEVPT2, FIC-MRCI
   Bernardo de Souza      : ESD, SOC TD-DFT
   Georgi Stoychev        : AutoAux, RI-MP2 NMR, DLPNO-MP2 response
   Willem Van den Heuvel  : Paramagnetic NMR
   Boris Wezisla          : Elementary symmetry handling
   Frank Wennmohs         : Technical directorship


 We gratefully acknowledge several colleagues who have allowed us to
 interface, adapt or use parts of their codes:
   Stefan Grimme, W. Hujo, H. Kruse, P. Pracht,  : VdW corrections, initial TS optimization,
                  C. Bannwarth, S. Ehlert          DFT functionals, gCP, sTDA/sTD-DF
   Ed Valeev, F. Pavosevic, A. Kumar             : LibInt (2-el integral package), F12 methods
   Garnet Chan, S. Sharma, J. Yang, R. Olivares  : DMRG
   Ulf Ekstrom                                   : XCFun DFT Library
   Mihaly Kallay                                 : mrcc  (arbitrary order and MRCC methods)
   Jiri Pittner, Ondrej Demel                    : Mk-CCSD
   Frank Weinhold                                : gennbo (NPA and NBO analysis)
   Christopher J. Cramer and Donald G. Truhlar   : smd solvation model
   Lars Goerigk                                  : TD-DFT with DH, B97 family of functionals
   V. Asgeirsson, H. Jonsson                     : NEB implementation
   FAccTs GmbH                                   : IRC, NEB, NEB-TS, DLPNO-Multilevel, CI-OPT
                                                   MM, QMMM, 2- and 3-layer-ONIOM, Crystal-QMMM,
                                                   LR-CPCM, SF, NACMEs, symmetry and pop. for TD-DFT,
                                                   nearIR, NL-DFT gradient (VV10), updates on ESD,
                                                   ML-optimized integration grids
   S Lehtola, MJT Oliveira, MAL Marques          : LibXC Library
   Liviu Ungur et al                             : ANISO software


 Your calculation uses the libint2 library for the computation of 2-el integrals
 For citations please refer to: http://libint.valeyev.net

 Your ORCA version has been built with support for libXC version: 5.1.0
 For citations please refer to: https://tddft.org/programs/libxc/

 This ORCA versions uses:
   CBLAS   interface :  Fast vector & matrix operations
   LAPACKE interface :  Fast linear algebra routines
   SCALAPACK package :  Parallel linear algebra routines
   Shared memory     :  Shared parallel matrices
   BLAS/LAPACK       :  OpenBLAS 0.3.15  USE64BITINT DYNAMIC_ARCH NO_AFFINITY SkylakeX SINGLE_THREADED
        Core in use  :  SkylakeX
   Copyright (c) 2011-2014, The OpenBLAS Project




***************************************
The coordinates will be read from file: 1ABisopooh1brd1w-1100001000_1_129.xyz
***************************************


Your calculation utilizes the atom-pairwise dispersion correction
with the Becke-Johnson damping scheme (D3BJ)
Cite in your paper:
S.Grimme, S.Ehrlich, L.Goerigk, J Comput Chem, (2011), 32, 1456–1465 
S.Grimme, J.Antony, S.Ehrlich and H.Krieg, J.Chem.Phys., 132, (2010), 154104 
   

================================================================================

----- Orbital basis set information -----
Your calculation utilizes the basis: aug-cc-pVTZ 
    H, B-Ne : Obtained from the ccRepo (grant-hill.group.shef.ac.uk/ccrepo) Feb. 2017
              R. A. Kendall, T. H. Dunning, Jr., R. J. Harrison, J. Chem. Phys. 96, 6796 (1992)
         He : Obtained from the ccRepo (grant-hill.group.shef.ac.uk/ccrepo) Feb. 2017
              D. E. Woon, T. H. Dunning, Jr., J. Chem. Phys. 100, 2975 (1994)
  Li-Be, Na : Obtained from the ccRepo (grant-hill.group.shef.ac.uk/ccrepo) Feb. 2017
              B. P. Prascher, D. E. Woon, K. A. Peterson, T. H. Dunning, Jr., A. K. Wilson, Theor. Chem. Acc. 128, 69 (2011)
         Mg : Obtained from the Peterson Research Group Website (tyr0.chem.wsu.edu/~kipeters) Feb. 2017
              B. P. Prascher, D. E. Woon, K. A. Peterson, T. H. Dunning, Jr., A. K. Wilson, Theor. Chem. Acc. 128, 69 (2011)
      Al-Ar : Obtained from the ccRepo (grant-hill.group.shef.ac.uk/ccrepo) Feb. 2017
              D. E. Woon, T. H. Dunning, Jr., J. Chem. Phys. 98, 1358 (1993)
      Sc-Zn : Obtained from the ccRepo (grant-hill.group.shef.ac.uk/ccrepo) Feb. 2017
              N. B. Balabanov, K. A. Peterson, J. Chem. Phys. 123, 064107 (2005)
              N. B. Balabanov, K. A. Peterson, J. Chem. Phys. 125, 074110 (2006)
      Ga-Kr : Obtained from the ccRepo (grant-hill.group.shef.ac.uk/ccrepo) Feb. 2017
              A. K. Wilson, D. E. Woon, K. A. Peterson, T. H. Dunning, Jr., J. Chem. Phys. 110, 7667 (1999)
     Ag, Au : Obtained from the Peterson Research Group Website (tyr0.chem.wsu.edu/~kipeters) Feb. 2017
              K. A. Peterson, C. Puzzarini, Theor. Chem. Acc. 114, 283 (2005)

The basis set includes element-specific modifications.

Your calculation utilizes the basis: aug-cc-pVTZ-PP 
       Ca, Sr, Ba, Ra : Obtained from the Peterson Research Group Website (tyr0.chem.wsu.edu/~kipeters) Feb. 2017
                        H. Li, H. Feng, W. Sun, Y. Zhang, Q. Fan, K. A. Peterson, Y. Xie, H. F. Schaefer III, Mol. Phys. 111, 2292 (2013)
  Cu-Zn, Ag-Cd, Au-Hg : Obtained from the ccRepo (grant-hill.group.shef.ac.uk/ccrepo) Feb. 2017
                        K. A. Peterson, C. Puzzarini, Theor. Chem. Acc. 114, 283 (2005)
  Ga-Kr, In-Xe, Tl-Rn : Obtained from the ccRepo (grant-hill.group.shef.ac.uk/ccrepo) Feb. 2017
                        K. A. Peterson, J. Chem. Phys. 119, 11099 (2003)
                        K. A. Peterson, D. Figgen, E. Goll, H. Stoll, M. Dolg, J. Chem. Phys. 119, 11113 (2003)
                 Y-Pd : Obtained from the ccRepo (grant-hill.group.shef.ac.uk/ccrepo) Feb. 2017
                        K. A. Peterson, D. Figgen, M. Dolg, H. Stoll, J. Chem. Phys. 126, 124101 (2007)
                Hf-Pt : Obtained from the ccRepo (grant-hill.group.shef.ac.uk/ccrepo) Feb. 2017
                        D. Figgen, K. A. Peterson, M. Dolg, H. Stoll, J. Chem. Phys. 130, 164108 (2009)

----- AuxJ basis set information -----
Your calculation utilizes the auxiliary basis: def2/J
   F. Weigend, Phys. Chem. Chem. Phys. 8, 1057 (2006).

================================================================================
                                        WARNINGS
                       Please study these warnings very carefully!
================================================================================


INFO   : the flag for use of the SHARK integral package has been found!

================================================================================
                                       INPUT FILE
================================================================================
NAME = 1ABisopooh1brd1w-1100001000_1_129.inp
|  1> ! aug-cc-pVTZ wb97X-D3BJ FREQ
|  2> %pal nprocs 4
|  3>     end
|  4> %Maxcore 3000.00
|  5> %basis
|  6> 	NewGTO I "aug-cc-pVTZ-PP" end
|  7> 	NewECP I "SK-MCDHF-RSC" end
|  8> end
|  9> %geom
| 10>         maxIter 500
| 11> end
| 12> * xyzfile -1 1 1ABisopooh1brd1w-1100001000_1_129.xyz
| 13>   
| 14> 
| 15>                          ****END OF INPUT****
================================================================================

                       ****************************
                       * Single Point Calculation *
                       ****************************

---------------------------------
CARTESIAN COORDINATES (ANGSTROEM)
---------------------------------
  O      2.282321    1.894633    5.811446
  H      2.201809    1.986532    4.854595
  H      1.589444    1.244150    6.004462
  C      4.256085    2.329630    2.522155
  C      3.717212    1.261332    1.952643
  H      5.307434    2.555775    2.381772
  H      3.677068    3.001735    3.142100
  H      4.338472    0.609599    1.342979
  C      2.284081    0.799597    2.061779
  C      1.660370    0.718065    0.671892
  C      2.299129   -0.581059    2.759802
  O      1.630470    1.800672    2.857878
  H      0.645765    0.335724    0.744602
  H      1.651904    1.708520    0.213342
  H      2.245754    0.038883    0.046996
  O      0.218330    1.619478    2.840972
  H      0.051447    1.093501    3.659284
  O      1.120337   -1.334494    2.618352
  H      3.111570   -1.164074    2.310369
  H      2.541574   -0.415227    3.814954
  H      0.560200   -1.151882    3.395556
  Br    -0.300057   -0.317771    5.388845

----------------------------
CARTESIAN COORDINATES (A.U.)
----------------------------
  NO LB      ZA    FRAG     MASS         X           Y           Z
   0 O     8.0000    0    15.999    4.312962    3.580337   10.982041
   1 H     1.0000    0     1.008    4.160817    3.754001    9.173855
   2 H     1.0000    0     1.008    3.003613    2.351103   11.346790
   3 C     6.0000    0    12.011    8.042835    4.402363    4.766182
   4 C     6.0000    0    12.011    7.024513    2.383573    3.689961
   5 H     1.0000    0     1.008   10.029596    4.829714    4.500897
   6 H     1.0000    0     1.008    6.948651    5.672457    5.937709
   7 H     1.0000    0     1.008    8.198524    1.151975    2.537862
   8 C     6.0000    0    12.011    4.316288    1.511020    3.896198
   9 C     6.0000    0    12.011    3.137644    1.356947    1.269693
  10 C     6.0000    0    12.011    4.344724   -1.098042    5.215271
  11 O     8.0000    0    15.999    3.081141    3.402777    5.400608
  12 H     1.0000    0     1.008    1.220319    0.634426    1.407093
  13 H     1.0000    0     1.008    3.121645    3.228634    0.403157
  14 H     1.0000    0     1.008    4.243861    0.073478    0.088809
  15 O     8.0000    0    15.999    0.412584    3.060370    5.368660
  16 H     1.0000    0     1.008    0.097221    2.066418    6.915044
  17 O     8.0000    0    15.999    2.117130   -2.521828    4.947969
  18 H     1.0000    0     1.008    5.880015   -2.199781    4.365965
  19 H     1.0000    0     1.008    4.802879   -0.784665    7.209218
  20 H     1.0000    0     1.008    1.058624   -2.176742    6.416671
  21 Br   35.0000    0    79.900   -0.567026   -0.600500   10.183442

--------------------------------
INTERNAL COORDINATES (ANGSTROEM)
--------------------------------
 O      0   0   0     0.000000000000     0.00000000     0.00000000
 H      1   0   0     0.964620095298     0.00000000     0.00000000
 H      1   2   0     0.969774888772   101.63628061     0.00000000
 C      2   1   3     3.126985720196   134.06867411   218.44869195
 C      4   2   1     1.325136938690    87.99224162   124.60679088
 H      4   2   1     1.084519919905   139.13809544   347.34818432
 H      4   2   1     1.082274370990    44.71636952   266.61507800
 H      5   4   2     1.087387354696   119.46004567   211.11026063
 C      5   4   2     1.509627089037   126.98146683    30.18792280
 C      9   5   4     1.525597667385   109.79150525   121.89983864
 C      9   5   4     1.547150440945   107.23722536   243.25790161
 O      9   5   4     1.436361032477   105.00403553     2.66949762
 H     10   9   5     1.086689859306   109.84992589   177.02382918
 H     10   9   5     1.091485331912   109.71972821   297.92473589
 H     10   9   5     1.092913148316   109.58124114    57.73775012
 O     12   9   5     1.423817030652   110.85720632   169.47730497
 H     16  12   9     0.986982702039   103.04232026    95.33892879
 O     11   9   5     1.406137627618   115.12655455   197.06751178
 H     11   9   5     1.096338314298   107.26625148   316.21443161
 H     11   9   5     1.095273823397   107.55851050    72.34284762
 H     18  11   9     0.975266888273   107.51698575   266.07783283
 Br    17  16  12     2.259784900943   173.55578588   269.78267237

---------------------------
INTERNAL COORDINATES (A.U.)
---------------------------
 O      0   0   0     0.000000000000     0.00000000     0.00000000
 H      1   0   0     1.822867803390     0.00000000     0.00000000
 H      1   2   0     1.832608951333   101.63628061     0.00000000
 C      2   1   3     5.909146635853   134.06867411   218.44869195
 C      4   2   1     2.504145904068    87.99224162   124.60679088
 H      4   2   1     2.049445635402   139.13809544   347.34818432
 H      4   2   1     2.045202162933    44.71636952   266.61507800
 H      5   4   2     2.054864301865   119.46004567   211.11026063
 C      5   4   2     2.852781762629   126.98146683    30.18792280
 C      9   5   4     2.882961781906   109.79150525   121.89983864
 C      9   5   4     2.923690621362   107.23722536   243.25790161
 O      9   5   4     2.714328980817   105.00403553     2.66949762
 H     10   9   5     2.053546226598   109.84992589   177.02382918
 H     10   9   5     2.062608356506   109.71972821   297.92473589
 H     10   9   5     2.065306538479   109.58124114    57.73775012
 O     12   9   5     2.690624252746   110.85720632   169.47730497
 H     16  12   9     1.865127005771   103.04232026    95.33892879
 O     11   9   5     2.657215022800   115.12655455   197.06751178
 H     11   9   5     2.071779164148   107.26625148   316.21443161
 H     11   9   5     2.069767567874   107.55851050    72.34284762
 H     18  11   9     1.842987326317   107.51698575   266.07783283
 Br    17  16  12     4.270374584353   173.55578588   269.78267237

---------------------
BASIS SET INFORMATION
---------------------
There are 4 groups of distinct atoms

 Group   1 Type O   : 19s6p3d2f contracted to 5s4p3d2f pattern {88111/3111/111/11}
 Group   2 Type H   : 6s3p2d contracted to 4s3p2d pattern {3111/111/11}
 Group   3 Type C   : 19s6p3d2f contracted to 5s4p3d2f pattern {88111/3111/111/11}
 Group   4 Type Br  : 75s36p10d2f contracted to 7s6p4d2f pattern {18181818111/111111111/7111/11}

Atom   0O    basis set group =>   1
Atom   1H    basis set group =>   2
Atom   2H    basis set group =>   2
Atom   3C    basis set group =>   3
Atom   4C    basis set group =>   3
Atom   5H    basis set group =>   2
Atom   6H    basis set group =>   2
Atom   7H    basis set group =>   2
Atom   8C    basis set group =>   3
Atom   9C    basis set group =>   3
Atom  10C    basis set group =>   3
Atom  11O    basis set group =>   1
Atom  12H    basis set group =>   2
Atom  13H    basis set group =>   2
Atom  14H    basis set group =>   2
Atom  15O    basis set group =>   1
Atom  16H    basis set group =>   2
Atom  17O    basis set group =>   1
Atom  18H    basis set group =>   2
Atom  19H    basis set group =>   2
Atom  20H    basis set group =>   2
Atom  21Br   basis set group =>   4
---------------------------------
AUXILIARY/J BASIS SET INFORMATION
---------------------------------
There are 4 groups of distinct atoms

 Group   1 Type O   : 12s5p4d2f1g contracted to 6s4p3d1f1g pattern {711111/2111/211/2/1}
 Group   2 Type H   : 5s2p1d contracted to 3s1p1d pattern {311/2/1}
 Group   3 Type C   : 12s5p4d2f1g contracted to 6s4p3d1f1g pattern {711111/2111/211/2/1}
 Group   4 Type Br  : 19s5p5d3f1g contracted to 8s4p3d2f1g pattern {121111111/2111/311/21/1}

Atom   0O    basis set group =>   1
Atom   1H    basis set group =>   2
Atom   2H    basis set group =>   2
Atom   3C    basis set group =>   3
Atom   4C    basis set group =>   3
Atom   5H    basis set group =>   2
Atom   6H    basis set group =>   2
Atom   7H    basis set group =>   2
Atom   8C    basis set group =>   3
Atom   9C    basis set group =>   3
Atom  10C    basis set group =>   3
Atom  11O    basis set group =>   1
Atom  12H    basis set group =>   2
Atom  13H    basis set group =>   2
Atom  14H    basis set group =>   2
Atom  15O    basis set group =>   1
Atom  16H    basis set group =>   2
Atom  17O    basis set group =>   1
Atom  18H    basis set group =>   2
Atom  19H    basis set group =>   2
Atom  20H    basis set group =>   2
Atom  21Br   basis set group =>   4


           ************************************************************
           *        Program running with 4 parallel MPI-processes     *
           *              working on a common directory               *
           ************************************************************
------------------------------------------------------------------------------
                           ORCA GTO INTEGRAL CALCULATION
                           -- RI-GTO INTEGRALS CHOSEN --
------------------------------------------------------------------------------
------------------------------------------------------------------------------
                   ___                                                        
                  /   \      - P O W E R E D   B Y -                         
                 /     \                                                     
                 |  |  |   _    _      __       _____    __    __             
                 |  |  |  | |  | |    /  \     |  _  \  |  |  /  |          
                  \  \/   | |  | |   /    \    | | | |  |  | /  /          
                 / \  \   | |__| |  /  /\  \   | |_| |  |  |/  /          
                |  |  |   |  __  | /  /__\  \  |    /   |      \           
                |  |  |   | |  | | |   __   |  |    \   |  |\   \          
                \     /   | |  | | |  |  |  |  | |\  \  |  | \   \       
                 \___/    |_|  |_| |__|  |__|  |_| \__\ |__|  \__/        
                                                                              
                      - O R C A' S   B I G   F R I E N D -                    
                                      &                                       
                       - I N T E G R A L  F E E D E R -                       
                                                                              
 v1 FN, 2020, v2 2021                                                         
------------------------------------------------------------------------------


Reading SHARK input file 1ABisopooh1brd1w-1100001000_1_129.SHARKINP.tmp ... ok
----------------------
SHARK INTEGRAL PACKAGE
----------------------

Number of atoms                             ...     22
Number of basis functions                   ...    841
Number of shells                            ...    329
Maximum angular momentum                    ...      3
Integral batch strategy                     ... SHARK/LIBINT Hybrid
RI-J (if used) integral strategy            ... SPLIT-RIJ (Revised 2003 algorithm where possible)
Printlevel                                  ...      1
Contraction scheme used                     ... PARTIAL GENERAL contraction
Coulomb Range Separation                    ... NOT USED
Exchange Range Separation                   ... Long Range
   Mu parameter                             ...  0.300000
   Scaling (regular/separated)              ...  0.167000  0.833000
Finite Nucleus Model                        ... NOT USED
Auxiliary Coulomb fitting basis             ... AVAILABLE
   # of basis functions in Aux-J            ...    631
   # of shells in Aux-J                     ...    213
   Maximum angular momentum in Aux-J        ...      4
Auxiliary J/K fitting basis                 ... NOT available
Auxiliary Correlation fitting basis         ... NOT available
Auxiliary 'external' fitting basis          ... NOT available
Integral threshold                          ...     1.000000e-10
Primitive cut-off                           ...     1.000000e-11
Primitive pair pre-selection threshold      ...     1.000000e-11

Calculating pre-screening integrals         ... done (  0.1 sec) Dimension = 329
Calculating pre-screening integrals (ORCA)  ... done (  0.5 sec) Dimension = 253
Organizing shell pair data                  ... done (  1.1 sec)
Shell pair information
Total number of shell pairs                 ...     54285
Shell pairs after pre-screening             ...     42625
Total number of primitive shell pairs       ...     71337
Primitive shell pairs kept                  ...     51537
          la=0 lb=0:   9481 shell pairs
          la=1 lb=0:  11323 shell pairs
          la=1 lb=1:   3237 shell pairs
          la=2 lb=0:   7447 shell pairs
          la=2 lb=1:   4180 shell pairs
          la=2 lb=2:   1427 shell pairs
          la=3 lb=0:   2742 shell pairs
          la=3 lb=1:   1540 shell pairs
          la=3 lb=2:   1043 shell pairs
          la=3 lb=3:    205 shell pairs

Calculating one electron integrals          ... done (  0.1 sec)
Calculating RI/J V-Matrix + Cholesky decomp.... done (  0.0 sec)
Calculating Nuclear repulsion               ... done (  0.0 sec) ENN=    852.996542580880 Eh

SHARK setup successfully completed in   4.5 seconds

Maximum memory used throughout the entire GTOINT-calculation: 176.3 MB


           ************************************************************
           *        Program running with 4 parallel MPI-processes     *
           *              working on a common directory               *
           ************************************************************
-------------------------------------------------------------------------------
                                 ORCA SCF
-------------------------------------------------------------------------------

------------
SCF SETTINGS
------------
Hamiltonian:
 Density Functional     Method          .... DFT(GTOs)
 Exchange Functional    Exchange        .... WB97X-V
 Correlation Functional Correlation     .... WB97X-V
 Gradients option       PostSCFGGA      .... off
 Hybrid DFT is turned on
   Fraction HF Exchange ScalHFX         ....  0.167000
   Scaling of DF-GGA-X  ScalDFX         ....  0.000000
   Scaling of DF-GGA-C  ScalDFC         ....  1.000000
   Scaling of DF-LDA-C  ScalLDAC        ....  1.000000
   Perturbative correction              ....  0.000000
   Density functional embedding theory  .... OFF
 Long-range corrected/Screened/Range-Separated Hybrid DFT is turned on
   Amount of maximum screened exact exchange              ....  0.833000
   Range separation parameter mu (erf(mu*r12)/r12)        ....  0.300000
 RI-approximation to the Coulomb term is turned on
   Number of AuxJ basis functions       .... 631
   RIJ-COSX (HFX calculated with COS-X)).... on


General Settings:
 Integral files         IntName         .... 1ABisopooh1brd1w-1100001000_1_129
 Hartree-Fock type      HFTyp           .... RHF
 Total Charge           Charge          ....   -1
 Multiplicity           Mult            ....    1
 Number of Electrons    NEL             ....  110
 Basis Dimension        Dim             ....  749
 Nuclear Repulsion      ENuc            ....    852.9965425809 Eh

Convergence Acceleration:
 DIIS                   CNVDIIS         .... on
   Start iteration      DIISMaxIt       ....    12
   Startup error        DIISStart       ....  0.200000
   # of expansion vecs  DIISMaxEq       ....     5
   Bias factor          DIISBfac        ....   1.050
   Max. coefficient     DIISMaxC        ....  10.000
 Trust-Rad. Augm. Hess. CNVTRAH         .... auto
   Auto Start mean grad. ratio tolernc. ....  1.125000
   Auto Start start iteration           ....    20
   Auto Start num. interpolation iter.  ....    10
   Max. Number of Micro iterations      ....    16
   Max. Number of Macro iterations      .... Maxiter - #DIIS iter
   Number of Davidson start vectors     ....     2
   Converg. threshold I  (grad. norm)   ....   5.000e-05
   Converg. threshold II (energy diff.) ....   1.000e-06
   Grad. Scal. Fac. for Micro threshold ....   0.100
   Minimum threshold for Micro iter.    ....   0.010
   NR start threshold (gradient norm)   ....   0.001
   Initial trust radius                 ....   0.400
   Minimum AH scaling param. (alpha)    ....   1.000
   Maximum AH scaling param. (alpha)    .... 1000.000
   Orbital update algorithm             .... Taylor
   White noise on init. David. guess    .... on
   Maximum white noise                  ....   0.010
   Quad. conv. algorithm                .... NR
 SOSCF                  CNVSOSCF        .... on
   Start iteration      SOSCFMaxIt      ....   150
   Startup grad/error   SOSCFStart      ....  0.003300
 Level Shifting         CNVShift        .... on
   Level shift para.    LevelShift      ....    0.2500
   Turn off err/grad.   ShiftErr        ....    0.0010
 Zerner damping         CNVZerner       .... off
 Static damping         CNVDamp         .... on
   Fraction old density DampFac         ....    0.7000
   Max. Damping (<1)    DampMax         ....    0.9800
   Min. Damping (>=0)   DampMin         ....    0.0000
   Turn off err/grad.   DampErr         ....    0.1000
 Fernandez-Rico         CNVRico         .... off

SCF Procedure:
 Maximum # iterations   MaxIter         ....   125
 SCF integral mode      SCFMode         .... Direct
   Integral package                     .... SHARK and LIBINT hybrid scheme
 Reset frequency        DirectResetFreq ....    20
 Integral Threshold     Thresh          ....  1.000e-10 Eh
 Primitive CutOff       TCut            ....  1.000e-11 Eh

Convergence Tolerance:
 Convergence Check Mode ConvCheckMode   .... Total+1el-Energy
 Convergence forced     ConvForced      .... 0
 Energy Change          TolE            ....  1.000e-06 Eh
 1-El. energy change                    ....  1.000e-03 Eh
 Orbital Gradient       TolG            ....  5.000e-05
 Orbital Rotation angle TolX            ....  5.000e-05
 DIIS Error             TolErr          ....  1.000e-06


Diagonalization of the overlap matrix:
Smallest eigenvalue                        ... 1.411e-06
Time for diagonalization                   ...    0.128 sec
Threshold for overlap eigenvalues          ... 1.000e-08
Number of eigenvalues below threshold      ... 0
Time for construction of square roots      ...    0.047 sec
Total time needed                          ...    0.178 sec

Time for model grid setup =    0.238 sec

------------------------------
INITIAL GUESS: MODEL POTENTIAL
------------------------------
Loading Hartree-Fock densities                     ... done
Calculating cut-offs                               ... done
Initializing the effective Hamiltonian             ... done
Setting up the integral package (SHARK)            ... done
Starting the Coulomb interaction                   ... done (   0.7 sec)
Reading the grid                                   ... done
Mapping shells                                     ... done
Starting the XC term evaluation                    ... done (   0.7 sec)
  promolecular density results
     # of electrons  =    108.996405455
     EX              =   -111.078743167
     EC              =     -5.342929624
     EX+EC           =   -116.421672791
Transforming the Hamiltonian                       ... done (   0.0 sec)
Diagonalizing the Hamiltonian                      ... done (   0.1 sec)
Back transforming the eigenvectors                 ... done (   0.0 sec)
Now organizing SCF variables                       ... done
                      ------------------
                      INITIAL GUESS DONE (   1.9 sec)
                      ------------------
-------------------
DFT GRID GENERATION
-------------------

General Integration Accuracy     IntAcc      ... 4.388
Radial Grid Type                 RadialGrid  ... OptM3 with GC (2021)
Angular Grid (max. ang.)         AngularGrid ... 4 (Lebedev-302)
Angular grid pruning method      GridPruning ... 4 (adaptive)
Weight generation scheme         WeightScheme... Becke
Basis function cutoff            BFCut       ... 1.0000e-10
Integration weight cutoff        WCut        ... 1.0000e-14
Angular grids for H and He will be reduced by one unit
Partially contracted basis set               ... off
Rotationally invariant grid construction     ... off

Total number of grid points                  ...   108612
Total number of batches                      ...     1706
Average number of points per batch           ...       63
Average number of grid points per atom       ...     4937
Time for grid setup =    0.853 sec

--------------------
COSX GRID GENERATION
--------------------

GRIDX 1
-------
General Integration Accuracy     IntAcc      ... 3.816
Radial Grid Type                 RadialGrid  ... OptM3 with GC (2021)
Angular Grid (max. ang.)         AngularGrid ... 1 (Lebedev-50)
Angular grid pruning method      GridPruning ... 4 (adaptive)
Weight generation scheme         WeightScheme... Becke
Basis function cutoff            BFCut       ... 1.0000e-10
Integration weight cutoff        WCut        ... 1.0000e-14
Angular grids for H and He will be reduced by one unit
Partially contracted basis set               ... on
Rotationally invariant grid construction     ... off

Total number of grid points                  ...    13518
Total number of batches                      ...      222
Average number of points per batch           ...       60
Average number of grid points per atom       ...      614
UseSFitting                                  ... on

GRIDX 2
-------
General Integration Accuracy     IntAcc      ... 4.020
Radial Grid Type                 RadialGrid  ... OptM3 with GC (2021)
Angular Grid (max. ang.)         AngularGrid ... 2 (Lebedev-110)
Angular grid pruning method      GridPruning ... 4 (adaptive)
Weight generation scheme         WeightScheme... Becke
Basis function cutoff            BFCut       ... 1.0000e-10
Integration weight cutoff        WCut        ... 1.0000e-14
Angular grids for H and He will be reduced by one unit
Partially contracted basis set               ... on
Rotationally invariant grid construction     ... off

Total number of grid points                  ...    31526
Total number of batches                      ...      503
Average number of points per batch           ...       62
Average number of grid points per atom       ...     1433
UseSFitting                                  ... on

GRIDX 3
-------
General Integration Accuracy     IntAcc      ... 4.338
Radial Grid Type                 RadialGrid  ... OptM3 with GC (2021)
Angular Grid (max. ang.)         AngularGrid ... 3 (Lebedev-194)
Angular grid pruning method      GridPruning ... 4 (adaptive)
Weight generation scheme         WeightScheme... Becke
Basis function cutoff            BFCut       ... 1.0000e-10
Integration weight cutoff        WCut        ... 1.0000e-14
Angular grids for H and He will be reduced by one unit
Partially contracted basis set               ... on
Rotationally invariant grid construction     ... off

Total number of grid points                  ...    70060
Total number of batches                      ...     1104
Average number of points per batch           ...       63
Average number of grid points per atom       ...     3185
UseSFitting                                  ... on

Time for X-Grid setup             =    1.811 sec

 re-compute Schwartz prescreening matrix in partically contracted basis (1) ...done (   0.161 sec)
--------------
SCF ITERATIONS
--------------
ITER       Energy         Delta-E        Max-DP      RMS-DP      [F,P]     Damp
               ***  Starting incremental Fock matrix formation  ***
  0  -3072.8536297844   0.000000000000 0.15834410  0.00135044  0.3941933 0.7000
  1  -3072.9516368634  -0.098007079072 0.08687222  0.00087556  0.2141634 0.7000
                               ***Turning on DIIS***
  2  -3073.0026859454  -0.051049082015 0.05899880  0.00055040  0.1090415 0.7000
  3  -3073.0338430344  -0.031157088922 0.13123486  0.00115023  0.0551711 0.0000
  4  -3073.1042383993  -0.070395364919 0.02053277  0.00015843  0.0057267 0.0000
  5  -3073.1046368102  -0.000398410918 0.01045479  0.00007807  0.0053053 0.0000
                      *** Initiating the SOSCF procedure ***
                           *** Shutting down DIIS ***
                      *** Re-Reading the Fockian *** 
                      *** Removing any level shift *** 
ITER      Energy       Delta-E        Grad      Rot      Max-DP    RMS-DP
  6  -3073.10474479  -0.0001079800  0.000368  0.000368  0.008952  0.000050
               *** Restarting incremental Fock matrix formation ***
  7  -3073.10477569  -0.0000309041  0.000170  0.000402  0.028644  0.000180
  8  -3073.10478165  -0.0000059591  0.000083  0.000354  0.019558  0.000090
  9  -3073.10478251  -0.0000008559  0.000047  0.000071  0.007448  0.000059
                  ***Gradient check signals convergence***
              ***Rediagonalizing the Fockian in SOSCF/NRSCF***

               *****************************************************
               *                     SUCCESS                       *
               *           SCF CONVERGED AFTER  10 CYCLES          *
               *****************************************************

Old exchange energy                            =    -40.102304027 Eh
New exchange energy                            =    -40.102249931 Eh
Exchange energy change after final integration =      0.000054096 Eh
Total energy after final integration           =  -3073.104728749 Eh
Final COS-X integration done in                =    71.808 sec

----------------
TOTAL SCF ENERGY
----------------

Total Energy       :        -3073.10472875 Eh          -83623.43100 eV

Components:
Nuclear Repulsion  :          852.99654258 Eh           23211.21596 eV
Electronic Energy  :        -3926.10127133 Eh         -106834.64696 eV
One Electron Energy:        -5978.76334154 Eh         -162690.42154 eV
Two Electron Energy:         2052.66207021 Eh           55855.77458 eV
Max COSX asymmetry :            0.00000664 Eh               0.00018 eV

Virial components:
Potential Energy   :        -6139.77782457 Eh         -167071.84838 eV
Kinetic Energy     :         3066.67309582 Eh           83448.41737 eV
Virial Ratio       :            2.00209727


DFT components:
N(Alpha)           :       55.000156035788 electrons
N(Beta)            :       55.000156035788 electrons
N(Total)           :      110.000312071576 electrons
E(X)               :     -112.050344430753 Eh       
E(C)               :       -5.398235291714 Eh       
E(XC)              :     -117.448579722467 Eh       
DFET-embed. en.    :        0.000000000000 Eh       

---------------
SCF CONVERGENCE
---------------

  Last Energy change         ...   -3.3552e-07  Tolerance :   1.0000e-06
  Last MAX-Density change    ...    5.7732e-15  Tolerance :   1.0000e-05
  Last RMS-Density change    ...    1.8783e-17  Tolerance :   1.0000e-06
  Last Orbital Gradient      ...    1.2141e-05  Tolerance :   5.0000e-05
  Last Orbital Rotation      ...    2.6493e-05  Tolerance :   5.0000e-05

             **** THE GBW FILE WAS UPDATED (1ABisopooh1brd1w-1100001000_1_129.gbw) ****
             **** DENSITY 1ABisopooh1brd1w-1100001000_1_129.scfp WAS UPDATED ****
             **** ENERGY FILE WAS UPDATED (1ABisopooh1brd1w-1100001000_1_129.en.tmp) ****
             **** THE GBW FILE WAS UPDATED (1ABisopooh1brd1w-1100001000_1_129.gbw) ****
             **** DENSITY 1ABisopooh1brd1w-1100001000_1_129.scfp WAS UPDATED ****
----------------
ORBITAL ENERGIES
----------------

  NO   OCC          E(Eh)            E(eV) 
   0   2.0000    -482.435715    -13127.7432 
   1   2.0000     -62.309487     -1695.5273 
   2   2.0000     -56.113464     -1526.9250 
   3   2.0000     -56.113240     -1526.9189 
   4   2.0000     -56.113081     -1526.9145 
   5   2.0000     -19.155854      -521.2573 
   6   2.0000     -19.133080      -520.6376 
   7   2.0000     -19.080778      -519.2144 
   8   2.0000     -19.060440      -518.6609 
   9   2.0000     -10.227745      -278.3111 
  10   2.0000     -10.199836      -277.5517 
  11   2.0000     -10.184136      -277.1244 
  12   2.0000     -10.171901      -276.7915 
  13   2.0000     -10.156198      -276.3642 
  14   2.0000      -8.572807      -233.2779 
  15   2.0000      -6.395058      -174.0184 
  16   2.0000      -6.394470      -174.0024 
  17   2.0000      -6.394174      -173.9943 
  18   2.0000      -2.518816       -68.5405 
  19   2.0000      -2.518701       -68.5373 
  20   2.0000      -2.518487       -68.5315 
  21   2.0000      -2.517957       -68.5171 
  22   2.0000      -2.517943       -68.5167 
  23   2.0000      -1.134565       -30.8731 
  24   2.0000      -1.022687       -27.8287 
  25   2.0000      -0.983404       -26.7598 
  26   2.0000      -0.924536       -25.1579 
  27   2.0000      -0.817235       -22.2381 
  28   2.0000      -0.769348       -20.9350 
  29   2.0000      -0.703647       -19.1472 
  30   2.0000      -0.667472       -18.1628 
  31   2.0000      -0.624937       -17.0054 
  32   2.0000      -0.574578       -15.6350 
  33   2.0000      -0.516596       -14.0573 
  34   2.0000      -0.502858       -13.6835 
  35   2.0000      -0.490479       -13.3466 
  36   2.0000      -0.486619       -13.2416 
  37   2.0000      -0.470903       -12.8139 
  38   2.0000      -0.452662       -12.3176 
  39   2.0000      -0.421074       -11.4580 
  40   2.0000      -0.401746       -10.9321 
  41   2.0000      -0.391667       -10.6578 
  42   2.0000      -0.384837       -10.4720 
  43   2.0000      -0.379894       -10.3374 
  44   2.0000      -0.356520        -9.7014 
  45   2.0000      -0.344062        -9.3624 
  46   2.0000      -0.316653        -8.6166 
  47   2.0000      -0.291591        -7.9346 
  48   2.0000      -0.278163        -7.5692 
  49   2.0000      -0.275172        -7.4878 
  50   2.0000      -0.267706        -7.2847 
  51   2.0000      -0.235549        -6.4096 
  52   2.0000      -0.201133        -5.4731 
  53   2.0000      -0.198075        -5.3899 
  54   2.0000      -0.196297        -5.3415 
  55   0.0000       0.096206         2.6179 
  56   0.0000       0.106467         2.8971 
  57   0.0000       0.111767         3.0413 
  58   0.0000       0.123497         3.3605 
  59   0.0000       0.128807         3.5050 
  60   0.0000       0.134232         3.6526 
  61   0.0000       0.144938         3.9440 
  62   0.0000       0.152212         4.1419 
  63   0.0000       0.155458         4.2302 
  64   0.0000       0.161703         4.4002 
  65   0.0000       0.167439         4.5563 
  66   0.0000       0.169500         4.6123 
  67   0.0000       0.184434         5.0187 
  68   0.0000       0.187263         5.0957 
  69   0.0000       0.190926         5.1954 
  70   0.0000       0.192735         5.2446 
  71   0.0000       0.197493         5.3741 
  72   0.0000       0.203191         5.5291 
  73   0.0000       0.209428         5.6988 
  74   0.0000       0.212521         5.7830 
  75   0.0000       0.221033         6.0146 
  76   0.0000       0.226015         6.1502 
  77   0.0000       0.233728         6.3601 
  78   0.0000       0.234568         6.3829 
  79   0.0000       0.236343         6.4312 
  80   0.0000       0.243650         6.6301 
  81   0.0000       0.248978         6.7750 
  82   0.0000       0.253430         6.8962 
  83   0.0000       0.255796         6.9606 
  84   0.0000       0.259130         7.0513 
  85   0.0000       0.264861         7.2072 
  86   0.0000       0.269434         7.3317 
  87   0.0000       0.274043         7.4571 
  88   0.0000       0.280491         7.6325 
  89   0.0000       0.287349         7.8192 
  90   0.0000       0.295214         8.0332 
  91   0.0000       0.296513         8.0685 
  92   0.0000       0.308873         8.4049 
  93   0.0000       0.314820         8.5667 
  94   0.0000       0.318081         8.6554 
  95   0.0000       0.329627         8.9696 
  96   0.0000       0.332506         9.0479 
  97   0.0000       0.337242         9.1768 
  98   0.0000       0.344123         9.3641 
  99   0.0000       0.348175         9.4743 
 100   0.0000       0.349156         9.5010 
 101   0.0000       0.353623         9.6226 
 102   0.0000       0.355540         9.6747 
 103   0.0000       0.358740         9.7618 
 104   0.0000       0.363624         9.8947 
 105   0.0000       0.366936         9.9848 
 106   0.0000       0.369784        10.0623 
 107   0.0000       0.372241        10.1292 
 108   0.0000       0.373702        10.1689 
 109   0.0000       0.388649        10.5757 
 110   0.0000       0.395168        10.7531 
 111   0.0000       0.399997        10.8845 
 112   0.0000       0.403080        10.9684 
 113   0.0000       0.408891        11.1265 
 114   0.0000       0.411427        11.1955 
 115   0.0000       0.416100        11.3227 
 116   0.0000       0.423927        11.5356 
 117   0.0000       0.427455        11.6316 
 118   0.0000       0.433529        11.7969 
 119   0.0000       0.437273        11.8988 
 120   0.0000       0.441623        12.0172 
 121   0.0000       0.442666        12.0456 
 122   0.0000       0.450957        12.2712 
 123   0.0000       0.452931        12.3249 
 124   0.0000       0.457329        12.4446 
 125   0.0000       0.459364        12.4999 
 126   0.0000       0.467488        12.7210 
 127   0.0000       0.471540        12.8312 
 128   0.0000       0.476676        12.9710 
 129   0.0000       0.485528        13.2119 
 130   0.0000       0.490944        13.3593 
 131   0.0000       0.495675        13.4880 
 132   0.0000       0.500350        13.6152 
 133   0.0000       0.504466        13.7272 
 134   0.0000       0.508137        13.8271 
 135   0.0000       0.510929        13.9031 
 136   0.0000       0.512545        13.9471 
 137   0.0000       0.520948        14.1757 
 138   0.0000       0.525142        14.2898 
 139   0.0000       0.526591        14.3293 
 140   0.0000       0.533632        14.5209 
 141   0.0000       0.536077        14.5874 
 142   0.0000       0.540266        14.7014 
 143   0.0000       0.545631        14.8474 
 144   0.0000       0.548003        14.9119 
 145   0.0000       0.554619        15.0920 
 146   0.0000       0.557892        15.1810 
 147   0.0000       0.565257        15.3814 
 148   0.0000       0.570377        15.5207 
 149   0.0000       0.575797        15.6682 
 150   0.0000       0.577150        15.7051 
 151   0.0000       0.580405        15.7936 
 152   0.0000       0.584194        15.8967 
 153   0.0000       0.588147        16.0043 
 154   0.0000       0.597619        16.2620 
 155   0.0000       0.600057        16.3284 
 156   0.0000       0.604363        16.4455 
 157   0.0000       0.607547        16.5322 
 158   0.0000       0.610666        16.6171 
 159   0.0000       0.615823        16.7574 
 160   0.0000       0.617606        16.8059 
 161   0.0000       0.627091        17.0640 
 162   0.0000       0.631263        17.1775 
 163   0.0000       0.634976        17.2786 
 164   0.0000       0.641776        17.4636 
 165   0.0000       0.643418        17.5083 
 166   0.0000       0.644637        17.5415 
 167   0.0000       0.659845        17.9553 
 168   0.0000       0.662143        18.0178 
 169   0.0000       0.665501        18.1092 
 170   0.0000       0.677360        18.4319 
 171   0.0000       0.680476        18.5167 
 172   0.0000       0.684833        18.6352 
 173   0.0000       0.687410        18.7054 
 174   0.0000       0.694384        18.8951 
 175   0.0000       0.698908        19.0182 
 176   0.0000       0.703578        19.1453 
 177   0.0000       0.706922        19.2363 
 178   0.0000       0.713806        19.4237 
 179   0.0000       0.719738        19.5851 
 180   0.0000       0.723028        19.6746 
 181   0.0000       0.728832        19.8325 
 182   0.0000       0.740302        20.1446 
 183   0.0000       0.745100        20.2752 
 184   0.0000       0.750918        20.4335 
 185   0.0000       0.758673        20.6445 
 186   0.0000       0.762510        20.7489 
 187   0.0000       0.765513        20.8307 
 188   0.0000       0.774109        21.0646 
 189   0.0000       0.782888        21.3035 
 190   0.0000       0.786873        21.4119 
 191   0.0000       0.793986        21.6055 
 192   0.0000       0.806107        21.9353 
 193   0.0000       0.816513        22.2184 
 194   0.0000       0.819728        22.3059 
 195   0.0000       0.824169        22.4268 
 196   0.0000       0.836020        22.7493 
 197   0.0000       0.840919        22.8826 
 198   0.0000       0.849290        23.1104 
 199   0.0000       0.853919        23.2363 
 200   0.0000       0.859533        23.3891 
 201   0.0000       0.863828        23.5060 
 202   0.0000       0.871572        23.7167 
 203   0.0000       0.876259        23.8442 
 204   0.0000       0.883265        24.0349 
 205   0.0000       0.886674        24.1276 
 206   0.0000       0.888832        24.1864 
 207   0.0000       0.894287        24.3348 
 208   0.0000       0.896240        24.3879 
 209   0.0000       0.900562        24.5055 
 210   0.0000       0.903410        24.5830 
 211   0.0000       0.910811        24.7844 
 212   0.0000       0.920141        25.0383 
 213   0.0000       0.926019        25.1982 
 214   0.0000       0.933518        25.4023 
 215   0.0000       0.943200        25.6658 
 216   0.0000       0.944569        25.7030 
 217   0.0000       0.954997        25.9868 
 218   0.0000       0.955891        26.0111 
 219   0.0000       0.963520        26.2187 
 220   0.0000       0.968540        26.3553 
 221   0.0000       0.974654        26.5217 
 222   0.0000       0.979162        26.6444 
 223   0.0000       0.986351        26.8400 
 224   0.0000       0.992509        27.0076 
 225   0.0000       0.993116        27.0241 
 226   0.0000       1.001285        27.2463 
 227   0.0000       1.005554        27.3625 
 228   0.0000       1.008574        27.4447 
 229   0.0000       1.019343        27.7377 
 230   0.0000       1.021751        27.8033 
 231   0.0000       1.032236        28.0886 
 232   0.0000       1.033747        28.1297 
 233   0.0000       1.039805        28.2945 
 234   0.0000       1.045391        28.4465 
 235   0.0000       1.056809        28.7572 
 236   0.0000       1.064304        28.9612 
 237   0.0000       1.067459        29.0470 
 238   0.0000       1.070800        29.1379 
 239   0.0000       1.073811        29.2199 
 240   0.0000       1.082254        29.4496 
 241   0.0000       1.089652        29.6510 
 242   0.0000       1.092821        29.7372 
 243   0.0000       1.097804        29.8728 
 244   0.0000       1.108932        30.1756 
 245   0.0000       1.111937        30.2573 
 246   0.0000       1.118767        30.4432 
 247   0.0000       1.120035        30.4777 
 248   0.0000       1.126396        30.6508 
 249   0.0000       1.132084        30.8056 
 250   0.0000       1.133439        30.8425 
 251   0.0000       1.142560        31.0906 
 252   0.0000       1.144867        31.1534 
 253   0.0000       1.151071        31.3222 
 254   0.0000       1.161396        31.6032 
 255   0.0000       1.168602        31.7993 
 256   0.0000       1.176146        32.0046 
 257   0.0000       1.178964        32.0812 
 258   0.0000       1.183772        32.2121 
 259   0.0000       1.193693        32.4820 
 260   0.0000       1.199512        32.6404 
 261   0.0000       1.206777        32.8381 
 262   0.0000       1.211342        32.9623 
 263   0.0000       1.214266        33.0419 
 264   0.0000       1.218055        33.1450 
 265   0.0000       1.221418        33.2365 
 266   0.0000       1.232302        33.5326 
 267   0.0000       1.237572        33.6761 
 268   0.0000       1.240823        33.7645 
 269   0.0000       1.246339        33.9146 
 270   0.0000       1.253990        34.1228 
 271   0.0000       1.262662        34.3588 
 272   0.0000       1.264557        34.4103 
 273   0.0000       1.270484        34.5716 
 274   0.0000       1.282487        34.8982 
 275   0.0000       1.287566        35.0365 
 276   0.0000       1.297158        35.2975 
 277   0.0000       1.300385        35.3853 
 278   0.0000       1.303819        35.4787 
 279   0.0000       1.307445        35.5774 
 280   0.0000       1.314401        35.7667 
 281   0.0000       1.317685        35.8560 
 282   0.0000       1.325088        36.0575 
 283   0.0000       1.328633        36.1539 
 284   0.0000       1.339868        36.4596 
 285   0.0000       1.340917        36.4882 
 286   0.0000       1.344735        36.5921 
 287   0.0000       1.352477        36.8028 
 288   0.0000       1.371236        37.3132 
 289   0.0000       1.375621        37.4326 
 290   0.0000       1.379631        37.5417 
 291   0.0000       1.384462        37.6731 
 292   0.0000       1.396144        37.9910 
 293   0.0000       1.402128        38.1539 
 294   0.0000       1.410580        38.3838 
 295   0.0000       1.421107        38.6703 
 296   0.0000       1.422009        38.6948 
 297   0.0000       1.432414        38.9780 
 298   0.0000       1.435253        39.0552 
 299   0.0000       1.440213        39.1902 
 300   0.0000       1.449161        39.4337 
 301   0.0000       1.451687        39.5024 
 302   0.0000       1.462278        39.7906 
 303   0.0000       1.470804        40.0226 
 304   0.0000       1.478240        40.2250 
 305   0.0000       1.479142        40.2495 
 306   0.0000       1.486624        40.4531 
 307   0.0000       1.489848        40.5408 
 308   0.0000       1.498549        40.7776 
 309   0.0000       1.506440        40.9923 
 310   0.0000       1.523049        41.4443 
 311   0.0000       1.525790        41.5189 
 312   0.0000       1.540191        41.9107 
 313   0.0000       1.540946        41.9313 
 314   0.0000       1.544204        42.0199 
 315   0.0000       1.557445        42.3802 
 316   0.0000       1.564098        42.5613 
 317   0.0000       1.572102        42.7791 
 318   0.0000       1.576910        42.9099 
 319   0.0000       1.581897        43.0456 
 320   0.0000       1.595466        43.4148 
 321   0.0000       1.597718        43.4761 
 322   0.0000       1.603975        43.6464 
 323   0.0000       1.607134        43.7323 
 324   0.0000       1.616487        43.9869 
 325   0.0000       1.623132        44.1677 
 326   0.0000       1.631879        44.4057 
 327   0.0000       1.638514        44.5862 
 328   0.0000       1.644712        44.7549 
 329   0.0000       1.652204        44.9587 
 330   0.0000       1.660087        45.1733 
 331   0.0000       1.666902        45.3587 
 332   0.0000       1.675104        45.5819 
 333   0.0000       1.682916        45.7945 
 334   0.0000       1.694323        46.1049 
 335   0.0000       1.698386        46.2154 
 336   0.0000       1.701270        46.2939 
 337   0.0000       1.708279        46.4846 
 338   0.0000       1.717080        46.7241 
 339   0.0000       1.723728        46.9050 
 340   0.0000       1.731011        47.1032 
 341   0.0000       1.737921        47.2912 
 342   0.0000       1.741267        47.3823 
 343   0.0000       1.749087        47.5951 
 344   0.0000       1.753668        47.7197 
 345   0.0000       1.768982        48.1365 
 346   0.0000       1.776791        48.3489 
 347   0.0000       1.784835        48.5678 
 348   0.0000       1.787108        48.6297 
 349   0.0000       1.793692        48.8088 
 350   0.0000       1.803038        49.0632 
 351   0.0000       1.809518        49.2395 
 352   0.0000       1.816730        49.4357 
 353   0.0000       1.817389        49.4537 
 354   0.0000       1.823366        49.6163 
 355   0.0000       1.828124        49.7458 
 356   0.0000       1.842357        50.1331 
 357   0.0000       1.846713        50.2516 
 358   0.0000       1.848404        50.2976 
 359   0.0000       1.856687        50.5230 
 360   0.0000       1.863295        50.7028 
 361   0.0000       1.871359        50.9223 
 362   0.0000       1.878909        51.1277 
 363   0.0000       1.887769        51.3688 
 364   0.0000       1.894798        51.5601 
 365   0.0000       1.908849        51.9424 
 366   0.0000       1.912641        52.0456 
 367   0.0000       1.935152        52.6582 
 368   0.0000       1.944407        52.9100 
 369   0.0000       1.953941        53.1695 
 370   0.0000       1.962234        53.3951 
 371   0.0000       1.965034        53.4713 
 372   0.0000       1.967950        53.5507 
 373   0.0000       1.984229        53.9936 
 374   0.0000       1.999180        54.4005 
 375   0.0000       2.000498        54.4363 
 376   0.0000       2.012008        54.7495 
 377   0.0000       2.028494        55.1981 
 378   0.0000       2.034833        55.3706 
 379   0.0000       2.038102        55.4596 
 380   0.0000       2.057592        55.9899 
 381   0.0000       2.062509        56.1237 
 382   0.0000       2.079299        56.5806 
 383   0.0000       2.083276        56.6888 
 384   0.0000       2.091216        56.9049 
 385   0.0000       2.107824        57.3568 
 386   0.0000       2.118316        57.6423 
 387   0.0000       2.123437        57.7816 
 388   0.0000       2.138749        58.1983 
 389   0.0000       2.145358        58.3782 
 390   0.0000       2.154112        58.6164 
 391   0.0000       2.162000        58.8310 
 392   0.0000       2.169824        59.0439 
 393   0.0000       2.174615        59.1743 
 394   0.0000       2.200371        59.8751 
 395   0.0000       2.209205        60.1155 
 396   0.0000       2.211526        60.1787 
 397   0.0000       2.225149        60.5494 
 398   0.0000       2.232662        60.7538 
 399   0.0000       2.241575        60.9964 
 400   0.0000       2.249432        61.2102 
 401   0.0000       2.257935        61.4415 
 402   0.0000       2.264872        61.6303 
 403   0.0000       2.270613        61.7865 
 404   0.0000       2.271941        61.8227 
 405   0.0000       2.287371        62.2425 
 406   0.0000       2.293890        62.4199 
 407   0.0000       2.296696        62.4963 
 408   0.0000       2.310358        62.8680 
 409   0.0000       2.324462        63.2518 
 410   0.0000       2.340215        63.6805 
 411   0.0000       2.341981        63.7285 
 412   0.0000       2.360893        64.2432 
 413   0.0000       2.372495        64.5589 
 414   0.0000       2.378419        64.7201 
 415   0.0000       2.382491        64.8309 
 416   0.0000       2.400937        65.3328 
 417   0.0000       2.406995        65.4977 
 418   0.0000       2.414191        65.6935 
 419   0.0000       2.419085        65.8267 
 420   0.0000       2.434185        66.2375 
 421   0.0000       2.434879        66.2564 
 422   0.0000       2.450788        66.6893 
 423   0.0000       2.455446        66.8161 
 424   0.0000       2.463697        67.0406 
 425   0.0000       2.467694        67.1494 
 426   0.0000       2.476352        67.3850 
 427   0.0000       2.485537        67.6349 
 428   0.0000       2.494620        67.8821 
 429   0.0000       2.508282        68.2538 
 430   0.0000       2.517441        68.5031 
 431   0.0000       2.531614        68.8887 
 432   0.0000       2.534455        68.9660 
 433   0.0000       2.545013        69.2533 
 434   0.0000       2.557983        69.6063 
 435   0.0000       2.575947        70.0951 
 436   0.0000       2.587049        70.3972 
 437   0.0000       2.599560        70.7376 
 438   0.0000       2.604677        70.8769 
 439   0.0000       2.618652        71.2571 
 440   0.0000       2.634304        71.6831 
 441   0.0000       2.637669        71.7746 
 442   0.0000       2.642594        71.9086 
 443   0.0000       2.653664        72.2099 
 444   0.0000       2.667600        72.5891 
 445   0.0000       2.675563        72.8058 
 446   0.0000       2.689287        73.1792 
 447   0.0000       2.701685        73.5166 
 448   0.0000       2.708256        73.6954 
 449   0.0000       2.711252        73.7769 
 450   0.0000       2.727522        74.2196 
 451   0.0000       2.729126        74.2633 
 452   0.0000       2.745818        74.7175 
 453   0.0000       2.764443        75.2243 
 454   0.0000       2.770585        75.3915 
 455   0.0000       2.784244        75.7631 
 456   0.0000       2.798051        76.1388 
 457   0.0000       2.813529        76.5600 
 458   0.0000       2.830630        77.0253 
 459   0.0000       2.841627        77.3246 
 460   0.0000       2.858256        77.7771 
 461   0.0000       2.872405        78.1621 
 462   0.0000       2.887899        78.5837 
 463   0.0000       2.894549        78.7647 
 464   0.0000       2.919874        79.4538 
 465   0.0000       2.930881        79.7533 
 466   0.0000       2.934946        79.8640 
 467   0.0000       2.952956        80.3540 
 468   0.0000       2.962033        80.6010 
 469   0.0000       2.970452        80.8301 
 470   0.0000       2.986154        81.2574 
 471   0.0000       3.001076        81.6634 
 472   0.0000       3.022603        82.2492 
 473   0.0000       3.032628        82.5220 
 474   0.0000       3.039241        82.7019 
 475   0.0000       3.064817        83.3979 
 476   0.0000       3.077629        83.7466 
 477   0.0000       3.086004        83.9744 
 478   0.0000       3.097023        84.2743 
 479   0.0000       3.111212        84.6604 
 480   0.0000       3.133262        85.2604 
 481   0.0000       3.148381        85.6718 
 482   0.0000       3.171373        86.2975 
 483   0.0000       3.179438        86.5169 
 484   0.0000       3.191587        86.8475 
 485   0.0000       3.198147        87.0260 
 486   0.0000       3.204219        87.1912 
 487   0.0000       3.228387        87.8489 
 488   0.0000       3.245966        88.3272 
 489   0.0000       3.252746        88.5117 
 490   0.0000       3.258784        88.6760 
 491   0.0000       3.284049        89.3635 
 492   0.0000       3.306093        89.9634 
 493   0.0000       3.316524        90.2472 
 494   0.0000       3.321110        90.3720 
 495   0.0000       3.337354        90.8140 
 496   0.0000       3.350497        91.1717 
 497   0.0000       3.394814        92.3776 
 498   0.0000       3.402796        92.5948 
 499   0.0000       3.415789        92.9483 
 500   0.0000       3.423887        93.1687 
 501   0.0000       3.440906        93.6318 
 502   0.0000       3.454506        94.0019 
 503   0.0000       3.485106        94.8346 
 504   0.0000       3.498626        95.2025 
 505   0.0000       3.503957        95.3475 
 506   0.0000       3.524310        95.9013 
 507   0.0000       3.544414        96.4484 
 508   0.0000       3.551258        96.6346 
 509   0.0000       3.574761        97.2742 
 510   0.0000       3.588671        97.6527 
 511   0.0000       3.603708        98.0619 
 512   0.0000       3.618871        98.4745 
 513   0.0000       3.623157        98.5911 
 514   0.0000       3.641268        99.0839 
 515   0.0000       3.657731        99.5319 
 516   0.0000       3.671681        99.9115 
 517   0.0000       3.676241       100.0356 
 518   0.0000       3.698117       100.6309 
 519   0.0000       3.716266       101.1247 
 520   0.0000       3.719497       101.2127 
 521   0.0000       3.732703       101.5720 
 522   0.0000       3.744717       101.8989 
 523   0.0000       3.757453       102.2455 
 524   0.0000       3.773489       102.6819 
 525   0.0000       3.777918       102.8024 
 526   0.0000       3.796336       103.3036 
 527   0.0000       3.809450       103.6604 
 528   0.0000       3.818097       103.8957 
 529   0.0000       3.832585       104.2899 
 530   0.0000       3.842470       104.5589 
 531   0.0000       3.847501       104.6958 
 532   0.0000       3.863941       105.1432 
 533   0.0000       3.884398       105.6998 
 534   0.0000       3.891921       105.9046 
 535   0.0000       3.900557       106.1395 
 536   0.0000       3.909539       106.3840 
 537   0.0000       3.928595       106.9025 
 538   0.0000       3.941360       107.2499 
 539   0.0000       3.950424       107.4965 
 540   0.0000       3.967815       107.9697 
 541   0.0000       3.986703       108.4837 
 542   0.0000       3.987551       108.5068 
 543   0.0000       4.002044       108.9012 
 544   0.0000       4.018518       109.3494 
 545   0.0000       4.042586       110.0044 
 546   0.0000       4.051425       110.2449 
 547   0.0000       4.054629       110.3321 
 548   0.0000       4.069402       110.7341 
 549   0.0000       4.087577       111.2286 
 550   0.0000       4.094598       111.4197 
 551   0.0000       4.108565       111.7997 
 552   0.0000       4.114061       111.9493 
 553   0.0000       4.133622       112.4816 
 554   0.0000       4.148206       112.8784 
 555   0.0000       4.163869       113.3046 
 556   0.0000       4.181042       113.7719 
 557   0.0000       4.187446       113.9462 
 558   0.0000       4.195890       114.1760 
 559   0.0000       4.206612       114.4677 
 560   0.0000       4.235563       115.2555 
 561   0.0000       4.238444       115.3339 
 562   0.0000       4.242917       115.4556 
 563   0.0000       4.265392       116.0672 
 564   0.0000       4.278091       116.4128 
 565   0.0000       4.282169       116.5237 
 566   0.0000       4.304347       117.1272 
 567   0.0000       4.320417       117.5645 
 568   0.0000       4.326441       117.7284 
 569   0.0000       4.339686       118.0888 
 570   0.0000       4.341950       118.1505 
 571   0.0000       4.354527       118.4927 
 572   0.0000       4.370286       118.9215 
 573   0.0000       4.376763       119.0978 
 574   0.0000       4.382239       119.2468 
 575   0.0000       4.389504       119.4445 
 576   0.0000       4.419293       120.2551 
 577   0.0000       4.434312       120.6638 
 578   0.0000       4.438916       120.7891 
 579   0.0000       4.461160       121.3943 
 580   0.0000       4.467172       121.5579 
 581   0.0000       4.471773       121.6831 
 582   0.0000       4.486834       122.0929 
 583   0.0000       4.498787       122.4182 
 584   0.0000       4.506917       122.6395 
 585   0.0000       4.522526       123.0642 
 586   0.0000       4.535166       123.4081 
 587   0.0000       4.544149       123.6526 
 588   0.0000       4.562637       124.1557 
 589   0.0000       4.572629       124.4276 
 590   0.0000       4.583729       124.7296 
 591   0.0000       4.601705       125.2188 
 592   0.0000       4.632225       126.0492 
 593   0.0000       4.642590       126.3313 
 594   0.0000       4.654154       126.6460 
 595   0.0000       4.683242       127.4375 
 596   0.0000       4.687354       127.5494 
 597   0.0000       4.694998       127.7574 
 598   0.0000       4.713664       128.2653 
 599   0.0000       4.728144       128.6593 
 600   0.0000       4.747236       129.1789 
 601   0.0000       4.750472       129.2669 
 602   0.0000       4.763559       129.6230 
 603   0.0000       4.782073       130.1268 
 604   0.0000       4.788564       130.3035 
 605   0.0000       4.805669       130.7689 
 606   0.0000       4.818370       131.1145 
 607   0.0000       4.836090       131.5967 
 608   0.0000       4.844514       131.8259 
 609   0.0000       4.859719       132.2397 
 610   0.0000       4.866831       132.4332 
 611   0.0000       4.886224       132.9609 
 612   0.0000       4.894508       133.1863 
 613   0.0000       4.916023       133.7718 
 614   0.0000       4.943117       134.5090 
 615   0.0000       4.953842       134.8009 
 616   0.0000       4.968088       135.1886 
 617   0.0000       4.977542       135.4458 
 618   0.0000       4.995576       135.9365 
 619   0.0000       5.006584       136.2361 
 620   0.0000       5.012492       136.3968 
 621   0.0000       5.035986       137.0361 
 622   0.0000       5.043089       137.2294 
 623   0.0000       5.071672       138.0072 
 624   0.0000       5.075347       138.1072 
 625   0.0000       5.084255       138.3496 
 626   0.0000       5.103738       138.8798 
 627   0.0000       5.116102       139.2162 
 628   0.0000       5.131023       139.6222 
 629   0.0000       5.144446       139.9875 
 630   0.0000       5.165861       140.5702 
 631   0.0000       5.180651       140.9727 
 632   0.0000       5.213397       141.8637 
 633   0.0000       5.219713       142.0356 
 634   0.0000       5.224800       142.1740 
 635   0.0000       5.257608       143.0668 
 636   0.0000       5.288201       143.8993 
 637   0.0000       5.295284       144.0920 
 638   0.0000       5.301692       144.2664 
 639   0.0000       5.312068       144.5487 
 640   0.0000       5.327893       144.9793 
 641   0.0000       5.337922       145.2522 
 642   0.0000       5.342563       145.3785 
 643   0.0000       5.353501       145.6762 
 644   0.0000       5.364631       145.9790 
 645   0.0000       5.368956       146.0967 
 646   0.0000       5.381857       146.4478 
 647   0.0000       5.409547       147.2012 
 648   0.0000       5.415157       147.3539 
 649   0.0000       5.430499       147.7714 
 650   0.0000       5.440284       148.0377 
 651   0.0000       5.446497       148.2067 
 652   0.0000       5.466761       148.7581 
 653   0.0000       5.489111       149.3663 
 654   0.0000       5.493313       149.4806 
 655   0.0000       5.498886       149.6323 
 656   0.0000       5.521229       150.2403 
 657   0.0000       5.530356       150.4887 
 658   0.0000       5.558889       151.2651 
 659   0.0000       5.585256       151.9825 
 660   0.0000       5.597249       152.3089 
 661   0.0000       5.631820       153.2496 
 662   0.0000       5.655455       153.8928 
 663   0.0000       5.680031       154.5615 
 664   0.0000       5.694378       154.9519 
 665   0.0000       5.742279       156.2554 
 666   0.0000       5.757950       156.6818 
 667   0.0000       5.777239       157.2067 
 668   0.0000       5.813496       158.1933 
 669   0.0000       5.897092       160.4680 
 670   0.0000       5.933045       161.4464 
 671   0.0000       5.977027       162.6432 
 672   0.0000       6.006526       163.4459 
 673   0.0000       6.057870       164.8430 
 674   0.0000       6.068394       165.1294 
 675   0.0000       6.092564       165.7871 
 676   0.0000       6.130110       166.8088 
 677   0.0000       6.158790       167.5892 
 678   0.0000       6.190501       168.4521 
 679   0.0000       6.233040       169.6096 
 680   0.0000       6.246015       169.9627 
 681   0.0000       6.322201       172.0358 
 682   0.0000       6.355465       172.9410 
 683   0.0000       6.415178       174.5659 
 684   0.0000       6.430385       174.9797 
 685   0.0000       6.497221       176.7984 
 686   0.0000       6.560636       178.5240 
 687   0.0000       6.593886       179.4288 
 688   0.0000       6.600809       179.6172 
 689   0.0000       6.644021       180.7930 
 690   0.0000       6.684757       181.9015 
 691   0.0000       6.723687       182.9608 
 692   0.0000       6.735099       183.2714 
 693   0.0000       6.752921       183.7563 
 694   0.0000       6.762133       184.0070 
 695   0.0000       6.790548       184.7802 
 696   0.0000       6.802764       185.1126 
 697   0.0000       6.833265       185.9426 
 698   0.0000       6.848393       186.3543 
 699   0.0000       6.879892       187.2114 
 700   0.0000       6.925385       188.4493 
 701   0.0000       6.943292       188.9366 
 702   0.0000       6.980579       189.9512 
 703   0.0000       6.987280       190.1336 
 704   0.0000       7.024521       191.1469 
 705   0.0000       7.047159       191.7630 
 706   0.0000       7.107904       193.4159 
 707   0.0000       7.116515       193.6502 
 708   0.0000       7.142319       194.3524 
 709   0.0000       7.165947       194.9953 
 710   0.0000       7.184329       195.4955 
 711   0.0000       7.191928       195.7023 
 712   0.0000       7.209902       196.1914 
 713   0.0000       7.224119       196.5783 
 714   0.0000       7.244393       197.1299 
 715   0.0000       7.247672       197.2192 
 716   0.0000       7.278623       198.0614 
 717   0.0000       7.288549       198.3315 
 718   0.0000       7.321520       199.2287 
 719   0.0000       7.327948       199.4036 
 720   0.0000       7.340695       199.7505 
 721   0.0000       7.378721       200.7852 
 722   0.0000       7.428907       202.1508 
 723   0.0000       7.467993       203.2144 
 724   0.0000       7.515853       204.5167 
 725   0.0000       7.587440       206.4647 
 726   0.0000       7.640721       207.9146 
 727   0.0000       7.658632       208.4020 
 728   0.0000       7.705486       209.6769 
 729   0.0000       7.822395       212.8582 
 730   0.0000       7.840692       213.3561 
 731   0.0000       7.848537       213.5696 
 732   0.0000       7.868018       214.0997 
 733   0.0000       7.929654       215.7768 
 734   0.0000       8.032839       218.5847 
 735   0.0000       8.042393       218.8446 
 736   0.0000       8.331458       226.7105 
 737   0.0000       8.391709       228.3500 
 738   0.0000       8.624171       234.6756 
 739   0.0000       8.651629       235.4228 
 740   0.0000      15.732978       428.1161 
 741   0.0000      16.119014       438.6207 
 742   0.0000      16.258771       442.4236 
 743   0.0000      16.751602       455.8343 
 744   0.0000      17.171829       467.2692 
 745   0.0000      17.797547       484.2959 
 746   0.0000      18.127809       493.2828 
 747   0.0000      18.985995       516.6352 
 748   0.0000      19.477242       530.0027 

                    ********************************
                    * MULLIKEN POPULATION ANALYSIS *
                    ********************************

-----------------------
MULLIKEN ATOMIC CHARGES
-----------------------
   0 O :   -0.562185
   1 H :    0.347725
   2 H :    0.218142
   3 C :   -1.289422
   4 C :   -0.300724
   5 H :    0.423709
   6 H :    0.180656
   7 H :    0.302223
   8 C :    1.988289
   9 C :   -1.277384
  10 C :   -0.383736
  11 O :   -0.492015
  12 H :    0.277638
  13 H :    0.278247
  14 H :    0.242109
  15 O :   -0.549673
  16 H :    0.294121
  17 O :   -0.713577
  18 H :    0.267413
  19 H :    0.406033
  20 H :    0.228148
  21 Br:   -0.885737
Sum of atomic charges:   -1.0000000

--------------------------------
MULLIKEN REDUCED ORBITAL CHARGES
--------------------------------
  0 O s       :     3.921405  s :     3.921405
      pz      :     1.358378  p :     4.622898
      px      :     1.615905
      py      :     1.648615
      dz2     :     0.008470  d :     0.017303
      dxz     :     0.001758
      dyz     :     0.000598
      dx2y2   :     0.001419
      dxy     :     0.005058
      f0      :     0.000048  f :     0.000579
      f+1     :     0.000054
      f-1     :    -0.000006
      f+2     :     0.000010
      f-2     :     0.000035
      f+3     :     0.000190
      f-3     :     0.000248
  1 H s       :     0.568078  s :     0.568078
      pz      :    -0.004240  p :     0.055023
      px      :     0.037746
      py      :     0.021517
      dz2     :     0.003050  d :     0.029175
      dxz     :     0.012978
      dyz     :     0.012360
      dx2y2   :     0.000203
      dxy     :     0.000583
  2 H s       :     0.670997  s :     0.670997
      pz      :     0.027870  p :     0.086753
      px      :     0.030063
      py      :     0.028820
      dz2     :     0.003398  d :     0.024109
      dxz     :     0.003021
      dyz     :     0.003025
      dx2y2   :     0.009161
      dxy     :     0.005504
  3 C s       :     3.826042  s :     3.826042
      pz      :     1.061826  p :     3.367946
      px      :     1.181694
      py      :     1.124426
      dz2     :     0.020594  d :     0.087870
      dxz     :     0.011750
      dyz     :     0.019300
      dx2y2   :     0.036032
      dxy     :     0.000195
      f0      :     0.000197  f :     0.007565
      f+1     :     0.001482
      f-1     :     0.001720
      f+2     :     0.002801
      f-2     :    -0.000582
      f+3     :    -0.001341
      f-3     :     0.003288
  4 C s       :     3.493413  s :     3.493413
      pz      :     0.939855  p :     2.837307
      px      :     1.034461
      py      :     0.862992
      dz2     :    -0.010246  d :    -0.021820
      dxz     :     0.002998
      dyz     :     0.012503
      dx2y2   :     0.005496
      dxy     :    -0.032571
      f0      :    -0.000965  f :    -0.008177
      f+1     :     0.000824
      f-1     :    -0.000313
      f+2     :    -0.003334
      f-2     :    -0.000075
      f+3     :    -0.006181
      f-3     :     0.001867
  5 H s       :     0.554679  s :     0.554679
      pz      :     0.021826  p :     0.015126
      px      :    -0.025070
      py      :     0.018370
      dz2     :    -0.000187  d :     0.006486
      dxz     :     0.003330
      dyz     :     0.000414
      dx2y2   :     0.000900
      dxy     :     0.002030
  6 H s       :     0.756689  s :     0.756689
      pz      :     0.029028  p :     0.058447
      px      :    -0.009467
      py      :     0.038886
      dz2     :     0.002022  d :     0.004208
      dxz     :     0.001803
      dyz     :    -0.002428
      dx2y2   :     0.003468
      dxy     :    -0.000658
  7 H s       :     0.680710  s :     0.680710
      pz      :     0.003333  p :     0.011917
      px      :     0.007697
      py      :     0.000888
      dz2     :     0.002531  d :     0.005149
      dxz     :     0.000979
      dyz     :    -0.001608
      dx2y2   :     0.002563
      dxy     :     0.000684
  8 C s       :     2.718521  s :     2.718521
      pz      :     0.566418  p :     1.396980
      px      :     0.265099
      py      :     0.565463
      dz2     :    -0.044826  d :    -0.080737
      dxz     :    -0.007969
      dyz     :    -0.008972
      dx2y2   :     0.018232
      dxy     :    -0.037202
      f0      :    -0.004404  f :    -0.023053
      f+1     :    -0.002466
      f-1     :    -0.003487
      f+2     :    -0.002112
      f-2     :    -0.003222
      f+3     :    -0.005611
      f-3     :    -0.001751
  9 C s       :     3.677038  s :     3.677038
      pz      :     1.011005  p :     3.455794
      px      :     1.235078
      py      :     1.209711
      dz2     :     0.011817  d :     0.124616
      dxz     :     0.020656
      dyz     :     0.039669
      dx2y2   :     0.037904
      dxy     :     0.014570
      f0      :     0.003179  f :     0.019936
      f+1     :     0.002638
      f-1     :     0.001985
      f+2     :     0.004000
      f-2     :     0.003366
      f+3     :     0.001641
      f-3     :     0.003126
 10 C s       :     3.394398  s :     3.394398
      pz      :     1.099172  p :     2.756086
      px      :     0.834050
      py      :     0.822864
      dz2     :     0.004406  d :     0.208923
      dxz     :     0.032074
      dyz     :     0.055061
      dx2y2   :     0.079178
      dxy     :     0.038204
      f0      :     0.006588  f :     0.024329
      f+1     :     0.000325
      f-1     :     0.004907
      f+2     :     0.003257
      f-2     :     0.004390
      f+3     :     0.002964
      f-3     :     0.001897
 11 O s       :     3.974223  s :     3.974223
[...]
     50      -0.000885  -0.002830   0.000123  -0.005781   0.004073  -0.006614
     51      -0.000362   0.000015   0.000245   0.000133  -0.000034   0.000004
     52      -0.001912   0.000153  -0.000730   0.000065  -0.000150   0.000184
     53      -0.001714   0.000264  -0.000641  -0.000177  -0.000013   0.000041
     54       0.629075  -0.030137   0.358220  -0.013231   0.031843  -0.019286
     55      -0.461988   0.022661  -0.265699   0.010266  -0.024573   0.015376
     56      -0.362123   0.017219  -0.196694   0.006799  -0.017528   0.010600
     57       0.096247  -0.010944  -0.184413   0.003765  -0.002743   0.001585
     58       0.082401  -0.006194  -0.121275   0.002733  -0.001828   0.000998
     59       0.482451  -0.050327  -0.837671   0.019461  -0.014194   0.007822
     60      -0.017496   0.002130   0.000987  -0.001927   0.000792  -0.000006
     61       0.007741  -0.000739   0.010283   0.000069   0.000271  -0.000407
     62       0.020492  -0.001691   0.002982   0.002698  -0.000482  -0.000448
     63      -0.000001   0.000002  -0.000018  -0.000002   0.000003  -0.000000
     64       0.000019   0.000003  -0.000017   0.000011  -0.000008   0.000009
     65       0.000032  -0.000010   0.000000   0.000001   0.000004  -0.000006
                 60         61         62         63         64         65    
      0       0.000002   0.000034   0.001144   0.002515   0.042102   0.006601
      1       0.000014  -0.000009   0.001352   0.002724   0.037649   0.016547
      2      -0.000021  -0.000009  -0.002153  -0.001877  -0.000778  -0.062254
      3       0.000299  -0.000839   0.002222   0.003891   0.012259   0.056964
      4       0.000141   0.000924  -0.001434  -0.000422   0.050191  -0.114536
      5       0.000120   0.000001   0.023463   0.013405  -0.231217   0.964037
      6      -0.000224   0.000180  -0.019513  -0.042183  -0.678046  -0.161437
      7      -0.000274  -0.000125  -0.018888  -0.041722  -0.645657  -0.147516
      8       0.000249  -0.000098   0.009005   0.016113   0.245642   0.023612
      9      -0.000405   0.079717  -0.000548   0.000072   0.000064   0.000028
     10      -0.000427  -0.034332   0.000151   0.000017  -0.000002  -0.000040
     11      -0.000096  -0.045742   0.000290   0.000015   0.000041  -0.000055
     12      -0.000128   0.005468  -0.000330  -0.000269  -0.000053   0.000111
     13      -0.000019  -0.003256  -0.000116   0.000117  -0.000044   0.000018
     14      -0.000102  -0.003717   0.000175  -0.000105   0.000002  -0.000072
     15       0.005837  -0.532182   0.006014   0.001402   0.000023  -0.001736
     16       0.001256  -0.117471   0.001112   0.000400   0.000085   0.000069
     17      -0.000776   0.068784  -0.001147   0.000303  -0.000082   0.000784
     18      -0.001681  -0.436678   0.000913  -0.000204  -0.000532   0.002185
     19       0.002054   0.515280  -0.002899   0.000441   0.000173   0.001018
     20       0.001726   0.474564  -0.002802  -0.000088  -0.000234  -0.000769
     21      -0.001679  -0.047366   0.006990  -0.000291   0.000056  -0.001284
     22       0.001127   0.050946  -0.004076   0.000056   0.000167   0.000743
     23       0.000533   0.047097  -0.004898   0.000288   0.000003   0.000944
     24       0.001078  -0.000159  -0.000543   0.000621  -0.000074   0.000591
     25       0.000491  -0.000491   0.001597  -0.000013   0.000046  -0.000589
     26      -0.000375  -0.000248   0.001098  -0.000053  -0.000002  -0.000333
     27       0.078705   0.000163  -0.000544  -0.000090   0.000015  -0.000103
     28       0.039292  -0.000266   0.000021  -0.000130  -0.000015   0.000124
     29      -0.022602  -0.000168   0.000209   0.000124  -0.000005   0.000049
     30       0.000668   0.000227   0.000682  -0.002831  -0.000115  -0.000093
     31      -0.000042  -0.000257   0.000447   0.000338  -0.000127  -0.000165
     32       0.000003  -0.000227  -0.000371   0.000774  -0.000167   0.000119
     33       0.000201   0.000201   0.002102   0.000084   0.000065  -0.000299
     34       0.000046   0.000218  -0.000146   0.000178  -0.000034   0.000242
     35       0.000153   0.000076  -0.000869   0.000073   0.000213   0.000096
     36      -0.873940  -0.000052   0.003689   0.001544   0.000105   0.000269
     37      -0.324943  -0.000074   0.003152  -0.000926   0.000039  -0.000172
     38       0.061117   0.000077   0.000416   0.000854   0.000190  -0.000154
     39       0.012021   0.000004  -0.000388   0.000427  -0.000012  -0.000062
     40      -0.268154   0.000750  -0.001121   0.003284   0.000084  -0.000059
     41       0.120035  -0.000481   0.001340  -0.001749  -0.000011  -0.000389
     42      -0.088085  -0.002153   0.004858  -0.000256  -0.000024  -0.000281
     43       0.119672   0.002541  -0.005020  -0.000116  -0.000053   0.000859
     44       0.099953   0.002394  -0.005888   0.000435  -0.000085   0.001602
     45      -0.000056  -0.000040  -0.011643  -0.001443   0.000285   0.000468
     46      -0.000456  -0.000214  -0.034131  -0.003815   0.000966   0.001131
     47      -0.000079   0.000463   0.053660   0.006366  -0.001475  -0.001471
     48       0.000150   0.001257   0.147398   0.019574  -0.005595  -0.005812
     49       0.002647   0.004143   0.523111   0.064406  -0.016677  -0.017849
     50      -0.005438  -0.006388  -0.826631  -0.101784   0.023500   0.027330
     51      -0.000263   0.000021   0.004762  -0.037202   0.002095   0.000928
     52       0.000121   0.000009  -0.001841   0.010373  -0.000449  -0.000123
     53      -0.000205  -0.000015  -0.006317   0.049091  -0.002543  -0.001172
     54      -0.003974  -0.003312  -0.002980   0.022948  -0.000197  -0.000725
     55       0.003209   0.002523  -0.001045  -0.008543   0.000037   0.001285
     56       0.002500   0.001910   0.001947  -0.008780   0.000186  -0.000050
     57       0.000270   0.000140  -0.000309   0.008859  -0.000589  -0.000287
     58      -0.000526   0.000053  -0.000755   0.005374  -0.000802  -0.000443
     59       0.000595   0.001028  -0.001947   0.008623   0.000430   0.000175
     60       0.000363  -0.000315  -0.076304   0.585953  -0.031542  -0.013763
     61      -0.000189  -0.000008   0.020954  -0.168035   0.009176   0.003692
     62      -0.001686   0.000319   0.095572  -0.777620   0.041977   0.019176
     63       0.000003   0.000001   0.000005   0.000003  -0.000013  -0.000032
     64       0.000001   0.000005   0.000173  -0.000104  -0.000004  -0.000023
     65      -0.000005  -0.000005  -0.000108  -0.000133  -0.000076  -0.000054


-----------
IR SPECTRUM
-----------

 Mode   freq       eps      Int      T**2         TX        TY        TZ
       cm**-1   L/(mol*cm) km/mol    a.u.
----------------------------------------------------------------------------
  6:     30.85   0.000288    1.46  0.002914  (-0.016417  0.051307  0.003526)
  7:     54.03   0.000347    1.75  0.002005  (-0.016492  0.003381  0.041488)
  8:     82.25   0.000110    0.55  0.000416  ( 0.016996  0.011190  0.001259)
  9:     93.47   0.000271    1.37  0.000904  (-0.024741 -0.007385  0.015421)
 10:     97.42   0.001535    7.76  0.004917  (-0.041768 -0.010498  0.055340)
 11:    106.40   0.000012    0.06  0.000036  (-0.003967  0.004421  0.000851)
 12:    145.16   0.000509    2.57  0.001094  ( 0.023468  0.017544  0.015333)
 13:    170.56   0.000122    0.62  0.000223  (-0.003264 -0.013150  0.006274)
 14:    215.34   0.001025    5.18  0.001485  ( 0.001249  0.012790 -0.036328)
 15:    218.01   0.000636    3.22  0.000911  ( 0.005494 -0.000379 -0.029671)
 16:    241.95   0.000432    2.18  0.000557  ( 0.004128 -0.019209  0.013083)
 17:    258.40   0.000269    1.36  0.000325  ( 0.012538  0.012247 -0.004180)
 18:    320.30   0.000641    3.24  0.000625  ( 0.014478 -0.019091 -0.007119)
 19:    326.81   0.000021    0.10  0.000020  (-0.003723  0.001472 -0.001934)
 20:    384.90   0.008092   40.89  0.006560  ( 0.019423  0.036049 -0.069882)
 21:    393.87   0.002136   10.80  0.001693  (-0.004177  0.008503  0.040036)
 22:    403.88   0.000216    1.09  0.000167  ( 0.006049 -0.010845  0.003509)
 23:    466.67   0.000323    1.63  0.000216  ( 0.003003 -0.010925  0.009352)
 24:    487.36   0.001043    5.27  0.000668  (-0.012109  0.009655 -0.020689)
 25:    557.28   0.004165   21.05  0.002333  (-0.037465  0.011503  0.028224)
 26:    599.81   0.025291  127.81  0.013158  ( 0.052902 -0.101762  0.002026)
 27:    603.57   0.001301    6.58  0.000673  ( 0.016554  0.013159 -0.015024)
 28:    687.33   0.003886   19.64  0.001764  ( 0.010527 -0.027250  0.030184)
 29:    733.72   0.007479   37.80  0.003181  ( 0.005593 -0.035388 -0.043559)
 30:    782.77   0.001280    6.47  0.000510  (-0.002373  0.021097  0.007725)
 31:    884.72   0.000786    3.97  0.000277  (-0.004130  0.014643  0.006772)
 32:    953.83   0.001361    6.88  0.000445  ( 0.013171 -0.013543 -0.009394)
 33:    977.00   0.002191   11.07  0.000700  ( 0.018397 -0.010844  0.015615)
 34:    977.63   0.007257   36.68  0.002317  ( 0.004642  0.027136 -0.039480)
 35:   1034.21   0.000206    1.04  0.000062  (-0.004362  0.005240 -0.003955)
 36:   1050.90   0.001905    9.62  0.000566  (-0.007755  0.010582 -0.019836)
 37:   1076.82   0.001659    8.38  0.000481  ( 0.015288  0.005586 -0.014693)
 38:   1122.87   0.019251   97.29  0.005350  ( 0.052639  0.050314 -0.006908)
 39:   1183.79   0.006260   31.64  0.001650  (-0.002077  0.023552  0.033034)
 40:   1211.27   0.001276    6.45  0.000329  ( 0.016993 -0.002344  0.005883)
 41:   1256.44   0.003044   15.38  0.000756  (-0.022842  0.011905  0.009621)
 42:   1309.51   0.001743    8.81  0.000415  ( 0.017341  0.007730 -0.007411)
 43:   1347.03   0.000792    4.00  0.000184  (-0.011181 -0.005042  0.005757)
 44:   1399.92   0.001991   10.06  0.000444  ( 0.006838  0.000642  0.019918)
 45:   1427.60   0.002682   13.55  0.000586  (-0.010251 -0.005131  0.021328)
 46:   1455.39   0.002765   13.97  0.000593  (-0.000792 -0.012178 -0.021071)
 47:   1457.05   0.002286   11.55  0.000490  (-0.009574 -0.017487 -0.009600)
 48:   1484.22   0.000136    0.69  0.000029  (-0.001715  0.004982  0.000939)
 49:   1488.61   0.000981    4.96  0.000206  (-0.013835  0.000371  0.003757)
 50:   1502.73   0.001502    7.59  0.000312  ( 0.015583 -0.008023 -0.002195)
 51:   1511.04   0.004610   23.30  0.000952  (-0.023338 -0.018333  0.008450)
 52:   1692.24   0.021360  107.95  0.003939  ( 0.042363  0.033607  0.031858)
 53:   1741.21   0.003154   15.94  0.000565  ( 0.017398  0.016199  0.000366)
 54:   3029.54   0.012463   62.99  0.001284  (-0.033626  0.010339  0.006798)
 55:   3064.54   0.007213   36.45  0.000734  ( 0.006630  0.000095 -0.026278)
 56:   3086.82   0.003730   18.85  0.000377  (-0.006103  0.006115  0.017391)
 57:   3131.51   0.004638   23.44  0.000462  ( 0.009286 -0.019384  0.000461)
 58:   3155.25   0.003383   17.10  0.000335  ( 0.001157  0.015290  0.009976)
 59:   3173.57   0.005001   25.27  0.000492  ( 0.020302  0.000144 -0.008918)
 60:   3186.84   0.001248    6.30  0.000122  ( 0.009540  0.005304 -0.001735)
 61:   3256.04   0.002101   10.62  0.000201  ( 0.013306  0.000883 -0.004856)
 62:   3383.52   0.151723  766.75  0.013993  ( 0.041005  0.066550 -0.088787)
 63:   3568.21   0.168880  853.45  0.014770  ( 0.067701 -0.007702 -0.100633)
 64:   3718.65   0.055281  279.37  0.004639  (-0.052448 -0.043365 -0.002789)
 65:   3816.06   0.043332  218.98  0.003544  (-0.015130 -0.011435  0.056425)

* The epsilon (eps) is given for a Dirac delta lineshape.
** The dipole moment derivative (T) already includes vibrational overlap.

The first frequency considered to be a vibration is 6
The total number of vibrations considered is 60


--------------------------
THERMOCHEMISTRY AT 298.15K
--------------------------

Temperature         ... 298.15 K
Pressure            ... 1.00 atm
Total Mass          ... 216.05 AMU

Throughout the following assumptions are being made:
  (1) The electronic state is orbitally nondegenerate
  (2) There are no thermally accessible electronically excited states
  (3) Hindered rotations indicated by low frequency modes are not
      treated as such but are treated as vibrations and this may
      cause some error
  (4) All equations used are the standard statistical mechanics
      equations for an ideal gas
  (5) All vibrations are strictly harmonic

freq.      30.85  E(vib)   ...       0.55 
freq.      54.03  E(vib)   ...       0.52 
freq.      82.25  E(vib)   ...       0.48 
freq.      93.47  E(vib)   ...       0.47 
freq.      97.42  E(vib)   ...       0.46 
freq.     106.40  E(vib)   ...       0.45 
freq.     145.16  E(vib)   ...       0.41 
freq.     170.56  E(vib)   ...       0.38 
freq.     215.34  E(vib)   ...       0.34 
freq.     218.01  E(vib)   ...       0.33 
freq.     241.95  E(vib)   ...       0.31 
freq.     258.40  E(vib)   ...       0.30 
freq.     320.30  E(vib)   ...       0.25 
freq.     326.81  E(vib)   ...       0.24 
freq.     384.90  E(vib)   ...       0.20 
freq.     393.87  E(vib)   ...       0.20 
freq.     403.88  E(vib)   ...       0.19 
freq.     466.67  E(vib)   ...       0.16 
freq.     487.36  E(vib)   ...       0.15 
freq.     557.28  E(vib)   ...       0.12 
freq.     599.81  E(vib)   ...       0.10 
freq.     603.57  E(vib)   ...       0.10 
freq.     687.33  E(vib)   ...       0.07 
freq.     733.72  E(vib)   ...       0.06 
freq.     782.77  E(vib)   ...       0.05 
freq.     884.72  E(vib)   ...       0.04 
freq.     953.83  E(vib)   ...       0.03 
freq.     977.00  E(vib)   ...       0.03 
freq.     977.63  E(vib)   ...       0.03 
freq.    1034.21  E(vib)   ...       0.02 
freq.    1050.90  E(vib)   ...       0.02 
freq.    1076.82  E(vib)   ...       0.02 
freq.    1122.87  E(vib)   ...       0.01 
freq.    1183.79  E(vib)   ...       0.01 
freq.    1211.27  E(vib)   ...       0.01 
freq.    1256.44  E(vib)   ...       0.01 
freq.    1309.51  E(vib)   ...       0.01 
freq.    1347.03  E(vib)   ...       0.01 
freq.    1399.92  E(vib)   ...       0.00 
freq.    1427.60  E(vib)   ...       0.00 
freq.    1455.39  E(vib)   ...       0.00 
freq.    1457.05  E(vib)   ...       0.00 
freq.    1484.22  E(vib)   ...       0.00 
freq.    1488.61  E(vib)   ...       0.00 
freq.    1502.73  E(vib)   ...       0.00 
freq.    1511.04  E(vib)   ...       0.00 
freq.    1692.24  E(vib)   ...       0.00 
freq.    1741.21  E(vib)   ...       0.00 
freq.    3029.54  E(vib)   ...       0.00 
freq.    3064.54  E(vib)   ...       0.00 
freq.    3086.82  E(vib)   ...       0.00 
freq.    3131.51  E(vib)   ...       0.00 
freq.    3155.25  E(vib)   ...       0.00 
freq.    3173.57  E(vib)   ...       0.00 
freq.    3186.84  E(vib)   ...       0.00 
freq.    3256.04  E(vib)   ...       0.00 
freq.    3383.52  E(vib)   ...       0.00 
freq.    3568.21  E(vib)   ...       0.00 
freq.    3718.65  E(vib)   ...       0.00 
freq.    3816.06  E(vib)   ...       0.00 

------------
INNER ENERGY
------------

The inner energy is: U= E(el) + E(ZPE) + E(vib) + E(rot) + E(trans)
    E(el)   - is the total energy from the electronic structure calculation
              = E(kin-el) + E(nuc-el) + E(el-el) + E(nuc-nuc)
    E(ZPE)  - the the zero temperature vibrational energy from the frequency calculation
    E(vib)  - the the finite temperature correction to E(ZPE) due to population
              of excited vibrational states
    E(rot)  - is the rotational thermal energy
    E(trans)- is the translational thermal energy

Summary of contributions to the inner energy U:
Electronic energy                ...  -3073.14074577 Eh
Zero point energy                ...      0.17673719 Eh     110.90 kcal/mol
Thermal vibrational correction   ...      0.01141146 Eh       7.16 kcal/mol
Thermal rotational correction    ...      0.00141627 Eh       0.89 kcal/mol
Thermal translational correction ...      0.00141627 Eh       0.89 kcal/mol
-----------------------------------------------------------------------
Total thermal energy                  -3072.94976457 Eh


Summary of corrections to the electronic energy:
(perhaps to be used in another calculation)
Total thermal correction                  0.01424401 Eh       8.94 kcal/mol
Non-thermal (ZPE) correction              0.17673719 Eh     110.90 kcal/mol
-----------------------------------------------------------------------
Total correction                          0.19098120 Eh     119.84 kcal/mol


--------
ENTHALPY
--------

The enthalpy is H = U + kB*T
                kB is Boltzmann's constant
Total free energy                 ...  -3072.94976457 Eh 
Thermal Enthalpy correction       ...      0.00094421 Eh       0.59 kcal/mol
-----------------------------------------------------------------------
Total Enthalpy                    ...  -3072.94882036 Eh


Note: Only C1 symmetry has been detected, increase convergence thresholds 
      if your molecule has a higher symmetry. Symmetry factor of 1.0 is   
      used for the rotational entropy correction. 
 

Note: Rotational entropy computed according to Herzberg 
Infrared and Raman Spectra, Chapter V,1, Van Nostrand Reinhold, 1945 
Point Group:  C1, Symmetry Number:   1  
Rotational constants in cm-1:     0.041130     0.015980     0.013700 

Vibrational entropy computed according to the QRRHO of S. Grimme
Chem.Eur.J. 2012 18 9955


-------
ENTROPY
-------

The entropy contributions are T*S = T*(S(el)+S(vib)+S(rot)+S(trans))
     S(el)   - electronic entropy
     S(vib)  - vibrational entropy
     S(rot)  - rotational entropy
     S(trans)- translational entropy
The entropies will be listed as multiplied by the temperature to get
units of energy

Electronic entropy                ...      0.00000000 Eh      0.00 kcal/mol
Vibrational entropy               ...      0.02052763 Eh     12.88 kcal/mol
Rotational entropy                ...      0.01499544 Eh      9.41 kcal/mol
Translational entropy             ...      0.01996223 Eh     12.53 kcal/mol
-----------------------------------------------------------------------
Final entropy term                ...      0.05548530 Eh     34.82 kcal/mol

In case the symmetry of your molecule has not been determined correctly
or in case you have a reason to use a different symmetry number we print 
out the resulting rotational entropy values for sn=1,12 :
 --------------------------------------------------------
|  sn= 1 | S(rot)=       0.01499544 Eh      9.41 kcal/mol|
|  sn= 2 | S(rot)=       0.01434098 Eh      9.00 kcal/mol|
|  sn= 3 | S(rot)=       0.01395815 Eh      8.76 kcal/mol|
|  sn= 4 | S(rot)=       0.01368653 Eh      8.59 kcal/mol|
|  sn= 5 | S(rot)=       0.01347584 Eh      8.46 kcal/mol|
|  sn= 6 | S(rot)=       0.01330370 Eh      8.35 kcal/mol|
|  sn= 7 | S(rot)=       0.01315815 Eh      8.26 kcal/mol|
|  sn= 8 | S(rot)=       0.01303207 Eh      8.18 kcal/mol|
|  sn= 9 | S(rot)=       0.01292086 Eh      8.11 kcal/mol|
|  sn=10 | S(rot)=       0.01282138 Eh      8.05 kcal/mol|
|  sn=11 | S(rot)=       0.01273139 Eh      7.99 kcal/mol|
|  sn=12 | S(rot)=       0.01264924 Eh      7.94 kcal/mol|
 --------------------------------------------------------


-------------------
GIBBS FREE ENERGY
-------------------

The Gibbs free energy is G = H - T*S

Total enthalpy                    ...  -3072.94882036 Eh 
Total entropy correction          ...     -0.05548530 Eh    -34.82 kcal/mol
-----------------------------------------------------------------------
Final Gibbs free energy         ...  -3073.00430567 Eh

For completeness - the Gibbs free energy minus the electronic energy
G-E(el)                           ...      0.13644010 Eh     85.62 kcal/mol


Timings for individual modules:

Sum of individual times         ...     9307.189 sec (= 155.120 min)
GTO integral calculation        ...       29.635 sec (=   0.494 min)   0.3 %
SCF iterations                  ...      364.939 sec (=   6.082 min)   3.9 %
Analytical frequency calculation...     8912.615 sec (= 148.544 min)  95.8 %
                             ****ORCA TERMINATED NORMALLY****
TOTAL RUN TIME: 0 days 2 hours 35 minutes 8 seconds 941 msec
